# data file for 10 EtOCS precursors with porosity capabilities 
0 33 xlo xhi
0 33 ylo yhi
0 33 zlo zhi

300 atoms
225 bonds
20 angles
10 dihedrals

3 atom types
3 bond types
1 angle types
8 dihedral types

Masses

	1	28
	2	16
	3	12

Angle Coeffs

	1	3.38	109.5185

Bond Coeffs

	1	20	1.9000
	2	20	1.5384
	3	20	1.5227

Dihedral Coeffs

	1	opls	0.3750	-0.2000	0.6250	-0.1000
	2	opls	0.0179	-0.0075	0.0613	-0.0025
	3	opls	0.0169	-0.0034	0.0596	-0.0029
	4	opls	0.0061	-0.0064	0.0680	-0.0032
	5	opls	5.1866	-0.7573	0.1955	-0.0484
	6	class2	0.0035	180.0000	0.0027	180.0000	0.0293	0.0000
	7	class2	0.0000	0.0000	0.0107	180.0000	0.0000	0.0000
	8	class2	5.5263	0.0000	0.0530	-180.0000	-0.4549	0.0000

MiddleBondTorsion Coeffs

	1	skip
	2	skip
	3	skip
	4	skip
	5	skip
	6	class2	0	0	0	0
	7	class2	0	0	0	0
	8	class2	0	0	0	0

EndBondTorsion Coeffs

	1	skip
	2	skip
	3	skip
	4	skip
	5	skip
	6	class2	0	0	0	0	0	0	0	0
	7	class2	0	0	0	0	0	0	0	0
	8	class2	0	0	0	0	0	0	0	0

AngleTorsion Coeffs

	1	skip
	2	skip
	3	skip
	4	skip
	5	skip
	6	class2	0	0	0	0	0	0	0	0
	7	class2	0	0	0	0	0	0	0	0
	8	class2	0	0	0	0	0	0	0	0

AngleAngleTorsion Coeffs

	1	skip
	2	skip
	3	skip
	4	skip
	5	skip
	6	class2	0	0	0
	7	class2	0	0	0
	8	class2	0	0	0

BondBond13 Coeffs

	1	skip
	2	skip
	3	skip
	4	skip
	5	skip
	6	class2	0	0	0
	7	class2	0	0	0
	8	class2	0	0	0
Atoms

1	1	1	4	9.2412	3.7203	8.8577
2	1	3	0	9.2412	3.7203	10.7577
3	1	3	0	9.2412	5.1703	11.2717
4	1	1	4	9.2412	5.1703	13.1717
5	2	1	4	16.9171	0.7909	16.3557
6	2	3	0	16.9171	0.7909	18.2557
7	2	3	0	16.9171	2.2409	18.7697
8	2	1	4	16.9171	2.2409	20.6697
9	3	1	4	12.0283	3.8323	7.1038
10	3	3	0	12.0283	3.8323	9.0038
11	3	3	0	12.0283	5.2823	9.5178
12	3	1	4	12.0283	5.2823	11.4178
13	4	1	4	5.8381	4.3169	13.5443
14	4	3	0	5.8381	4.3169	15.4443
15	4	3	0	5.8381	5.7669	15.9583
16	4	1	4	5.8381	5.7669	17.8583
17	5	1	4	12.5780	5.1429	10.8289
18	5	3	0	12.5780	5.1429	12.7289
19	5	3	0	12.5780	6.5929	13.2429
20	5	1	4	12.5780	6.5929	15.1429
21	6	1	4	10.8284	0.1937	6.9171
22	6	3	0	10.8284	0.1937	8.8171
23	6	3	0	10.8284	1.6437	9.3311
24	6	1	4	10.8284	1.6437	11.2311
25	7	1	4	16.5580	9.9908	0.8109
26	7	3	0	16.5580	9.9908	2.7109
27	7	3	0	16.5580	11.4408	3.2249
28	7	1	4	16.5580	11.4408	5.1249
29	8	1	4	5.3471	15.7031	6.1940
30	8	3	0	5.3471	15.7031	8.0940
31	8	3	0	5.3471	17.1531	8.6080
32	8	1	4	5.3471	17.1531	10.5080
33	9	1	4	1.0226	7.2237	12.7650
34	9	3	0	1.0226	7.2237	14.6650
35	9	3	0	1.0226	8.6737	15.1790
36	9	1	4	1.0226	8.6737	17.0790
37	10	1	4	11.1291	9.9310	9.4262
38	10	3	0	11.1291	9.9310	11.3262
39	10	3	0	11.1291	11.3810	11.8402
40	10	1	4	11.1291	11.3810	13.7402
40	0	2	-2	2.3838	16.3864	16.1169
41	0	2	-2	6.5378	0.2019	13.7640
42	0	2	-2	5.2146	15.9590	11.1169
43	0	2	-2	0.2640	5.5204	8.3470
44	0	2	-2	3.4097	11.9630	7.4188
45	0	2	-2	16.4670	0.4505	4.8383
46	0	2	-2	1.9836	0.2453	16.2230
47	0	2	-2	2.2185	16.3007	9.9684
48	0	2	-2	8.2531	7.9771	6.3887
49	0	2	-2	2.8497	0.0003	3.7241
50	0	2	-2	11.8810	2.0867	3.7192
51	0	2	-2	6.0539	5.3007	2.5396
52	0	2	-2	12.1505	0.5033	5.9244
53	0	2	-2	11.3391	2.2438	13.4631
54	0	2	-2	17.8998	0.6705	7.7920
55	0	2	-2	5.1924	5.6785	12.1709
56	0	2	-2	17.0166	2.2792	2.5505
57	0	2	-2	13.4181	14.4536	4.3269
58	0	2	-2	8.3598	16.6856	0.2631
59	0	2	-2	17.2934	2.4388	12.7119
60	0	2	-2	4.2168	0.7088	14.0709
61	0	2	-2	11.0059	16.8423	5.7791
62	0	2	-2	5.2360	2.8609	9.8783
63	0	2	-2	14.6539	7.2844	1.6436
64	0	2	-2	13.9810	8.7528	14.7775
65	0	2	-2	15.7288	2.1307	3.9154
66	0	2	-2	3.9354	12.2935	7.4812
67	0	2	-2	15.2564	9.6866	15.0963
68	0	2	-2	6.8941	12.0898	10.4370
69	0	2	-2	5.7663	1.8787	12.0188
70	0	2	-2	6.2342	15.9788	14.2927
71	0	2	-2	15.7142	9.6591	13.0004
72	0	2	-2	13.5715	2.3215	8.3962
73	0	2	-2	0.6242	2.2386	1.6871
74	0	2	-2	16.0599	3.0395	4.7649
75	0	2	-2	3.5224	10.9666	17.8973
76	0	2	-2	9.4127	5.1325	16.5141
77	0	2	-2	14.7073	15.7105	8.5693
78	0	2	-2	12.3090	3.5829	6.5076
79	0	2	-2	3.6937	15.8481	10.5536
80	0	2	-2	13.5601	13.1366	5.7259
81	0	2	-2	3.2600	6.7584	7.0917
82	0	2	-2	5.9629	6.8200	6.0359
83	0	2	-2	12.4389	14.2766	17.4886
84	0	2	-2	15.1301	5.3136	15.5500
85	0	2	-2	0.9519	14.4087	8.2702
86	0	2	-2	3.6899	5.7370	0.7631
87	0	2	-2	13.2235	16.5499	2.2660
88	0	2	-2	2.2376	14.6619	16.6132
89	0	2	-2	4.3343	14.0153	7.2646
90	0	2	-2	7.8933	7.2664	8.5877
91	0	2	-2	12.5012	15.3324	10.5843
92	0	2	-2	5.4472	5.0132	3.4585
93	0	2	-2	11.3216	10.4973	7.6227
94	0	2	-2	7.5583	12.9217	16.3171
95	0	2	-2	13.5026	15.8301	4.3432
96	0	2	-2	0.9342	1.4295	14.5292
97	0	2	-2	11.8112	2.5952	2.6141
98	0	2	-2	13.6595	17.6374	7.2045
99	0	2	-2	4.7153	4.7347	15.2196
101	11	3	0	22.4611	26.2114	17.8396
102	11	3	0	21.0235	26.0786	17.3557
103	11	3	0	20.3836	24.7013	17.3574
104	11	3	0	20.8049	23.7375	18.4815
105	11	3	0	19.8109	22.5713	18.6762
106	11	3	0	19.7796	21.6084	17.4910
107	11	3	0	18.8960	20.3926	17.7128
108	11	3	0	18.4671	19.7170	16.4201
109	11	3	0	17.1059	19.0189	16.6091
110	11	3	0	16.2578	18.6645	15.2989
111	11	3	0	14.8708	18.1247	15.7799
112	11	3	0	17.1315	17.5676	14.5849
113	11	3	0	16.2194	19.9364	14.3803
114	11	3	0	16.5310	16.7383	13.3809
115	11	3	0	17.2482	15.3227	13.1835
116	11	3	0	16.7991	14.5535	11.8856
117	11	3	0	15.3339	13.9291	11.9374
118	11	3	0	14.8509	13.6773	10.5222
119	11	3	0	13.5524	12.8167	10.4272
120	11	3	0	12.6091	13.3578	11.5720
121	11	3	0	11.1918	12.7431	11.3923
122	11	3	0	10.3966	13.0332	12.7291
123	11	3	0	15.5888	21.2115	14.9078
124	11	3	0	15.2330	22.2042	13.7337
125	11	3	0	14.7459	23.5892	14.1989
126	11	3	0	14.7025	24.6205	13.0212
127	11	3	0	14.0389	24.1557	11.7090
128	11	3	0	12.6133	23.6495	11.8167
129	11	3	0	11.4740	24.6828	12.0171
130	11	3	0	10.1263	24.0221	12.5442
131	11	3	0	10.2208	23.2778	13.9091
132	11	3	0	14.8771	16.6635	16.3129
133	11	3	0	13.5101	15.9250	15.9435
134	11	3	0	13.3888	14.4318	16.2498
135	11	3	0	14.6731	13.6813	16.1260
136	11	3	0	14.3240	12.1941	16.2568
137	11	3	0	13.4851	11.5823	15.0602
138	11	3	0	13.8273	10.1423	15.0583
139	11	3	0	13.0513	9.3360	14.0149
140	11	3	0	11.5032	9.2044	14.0301
141	12	3	0	15.9863	28.7052	22.4719
142	12	3	0	14.5487	28.5724	21.9881
143	12	3	0	13.9088	27.1951	21.9898
144	12	3	0	14.3301	26.2313	23.1138
145	12	3	0	13.3361	25.0651	23.3086
146	12	3	0	13.3048	24.1021	22.1234
147	12	3	0	12.4213	22.8864	22.3452
148	12	3	0	11.9923	22.2107	21.0525
149	12	3	0	10.6311	21.5126	21.2415
150	12	3	0	9.7830	21.1582	19.9313
151	12	3	0	8.3960	20.6184	20.4123
152	12	3	0	10.6567	20.0614	19.2173
153	12	3	0	9.7446	22.4301	19.0126
154	12	3	0	10.0562	19.2320	18.0133
155	12	3	0	10.7734	17.8164	17.8158
156	12	3	0	10.3243	17.0472	16.5179
157	12	3	0	8.8591	16.4229	16.5697
158	12	3	0	8.3761	16.1710	15.1545
159	12	3	0	7.0776	15.3105	15.0596
160	12	3	0	6.1343	15.8516	16.2044
161	12	3	0	4.7170	15.2368	16.0247
162	12	3	0	3.9218	15.5269	17.3614
163	12	3	0	9.1140	23.7052	19.5401
164	12	3	0	8.7582	24.6980	18.3661
165	12	3	0	8.2711	26.0829	18.8313
166	12	3	0	8.2277	27.1142	17.6535
167	12	3	0	7.5641	26.6494	16.3414
168	12	3	0	6.1385	26.1432	16.4491
169	12	3	0	4.9992	27.1766	16.6495
170	12	3	0	3.6515	26.5158	17.1765
171	12	3	0	3.7460	25.7715	18.5414
172	12	3	0	8.4023	19.1572	20.9453
173	12	3	0	7.0353	18.4187	20.5759
174	12	3	0	6.9141	16.9255	20.8822
175	12	3	0	8.1983	16.1750	20.7584
176	12	3	0	7.8492	14.6878	20.8892
177	12	3	0	7.0103	14.0760	19.6926
178	12	3	0	7.3525	12.6360	19.6906
179	12	3	0	6.5765	11.8297	18.6472
180	12	3	0	5.0284	11.6981	18.6624
181	13	3	0	29.9219	31.5929	8.6080
182	13	3	0	28.4843	31.4601	8.1241
183	13	3	0	27.8444	30.0828	8.1259
184	13	3	0	28.2656	29.1191	9.2499
185	13	3	0	27.2717	27.9528	9.4446
186	13	3	0	27.2404	26.9899	8.2595
187	13	3	0	26.3568	25.7741	8.4813
188	13	3	0	25.9279	25.0985	7.1885
189	13	3	0	24.5667	24.4004	7.3776
190	13	3	0	23.7185	24.0460	6.0673
191	13	3	0	22.3316	23.5062	6.5484
192	13	3	0	24.5923	22.9492	5.3533
193	13	3	0	23.6802	25.3179	5.1487
194	13	3	0	23.9918	22.1198	4.1494
195	13	3	0	24.7090	20.7042	3.9519
196	13	3	0	24.2599	19.9350	2.6540
197	13	3	0	22.7946	19.3107	2.7058
198	13	3	0	22.3116	19.0588	1.2906
199	13	3	0	21.0132	18.1982	1.1956
200	13	3	0	20.0699	18.7394	2.3404
201	13	3	0	18.6525	18.1246	2.1608
202	13	3	0	17.8574	18.4147	3.4975
203	13	3	0	23.0495	26.5930	5.6762
204	13	3	0	22.6938	27.5858	4.5022
205	13	3	0	22.2066	28.9707	4.9674
206	13	3	0	22.1633	30.0020	3.7896
207	13	3	0	21.4997	29.5372	2.4774
208	13	3	0	20.0740	29.0310	2.5851
209	13	3	0	18.9348	30.0643	2.7856
210	13	3	0	17.5871	29.4036	3.3126
211	13	3	0	17.6816	28.6593	4.6775
212	13	3	0	22.3378	22.0450	7.0814
213	13	3	0	20.9709	21.3065	6.7120
214	13	3	0	20.8496	19.8133	7.0183
215	13	3	0	22.1339	19.0628	6.8944
216	13	3	0	21.7848	17.5756	7.0252
217	13	3	0	20.9459	16.9638	5.8286
218	13	3	0	21.2881	15.5238	5.8267
219	13	3	0	20.5120	14.7175	4.7833
220	13	3	0	18.9640	14.5859	4.7985
221	14	3	0	28.0061	34.1322	10.2261
222	14	3	0	26.5685	33.9994	9.7423
223	14	3	0	25.9286	32.6221	9.7440
224	14	3	0	26.3498	31.6583	10.8681
225	14	3	0	25.3558	30.4921	11.0628
226	14	3	0	25.3246	29.5291	9.8776
227	14	3	0	24.4410	28.3134	10.0994
228	14	3	0	24.0121	27.6378	8.8067
229	14	3	0	22.6508	26.9396	8.9957
230	14	3	0	21.8027	26.5852	7.6855
231	14	3	0	20.4158	26.0454	8.1665
232	14	3	0	22.6764	25.4884	6.9715
233	14	3	0	21.7643	27.8572	6.7668
234	14	3	0	22.0760	24.6591	5.7675
235	14	3	0	22.7931	23.2435	5.5700
236	14	3	0	22.3440	22.4742	4.2722
237	14	3	0	20.8788	21.8499	4.3240
238	14	3	0	20.3958	21.5980	2.9088
239	14	3	0	19.0973	20.7375	2.8138
240	14	3	0	18.1541	21.2786	3.9586
241	14	3	0	16.7367	20.6639	3.7789
242	14	3	0	15.9416	20.9540	5.1156
243	14	3	0	21.1337	29.1322	7.2944
244	14	3	0	20.7779	30.1250	6.1203
245	14	3	0	20.2908	31.5099	6.5855
246	14	3	0	20.2474	32.5412	5.4077
247	14	3	0	19.5839	32.0764	4.0956
248	14	3	0	18.1582	31.5702	4.2033
249	14	3	0	17.0189	32.6036	4.4037
250	14	3	0	15.6712	31.9428	4.9307
251	14	3	0	15.7657	31.1985	6.2956
252	14	3	0	20.4220	24.5842	8.6995
253	14	3	0	19.0550	23.8458	8.3301
254	14	3	0	18.9338	22.3525	8.6364
255	14	3	0	20.2181	21.6021	8.5126
256	14	3	0	19.8689	20.1148	8.6434
257	14	3	0	19.0300	19.5030	7.4468
258	14	3	0	19.3723	18.0631	7.4448
259	14	3	0	18.5962	17.2567	6.4014
260	14	3	0	17.0482	17.1252	6.4166
261	15	3	0	24.4910	26.8748	9.6198
262	15	3	0	23.0534	26.7420	9.1360
263	15	3	0	22.4135	25.3647	9.1377
264	15	3	0	22.8348	24.4009	10.2618
265	15	3	0	21.8408	23.2347	10.4565
266	15	3	0	21.8095	22.2718	9.2713
267	15	3	0	20.9260	21.0560	9.4931
268	15	3	0	20.4970	20.3804	8.2004
269	15	3	0	19.1358	19.6823	8.3894
270	15	3	0	18.2877	19.3279	7.0792
271	15	3	0	16.9007	18.7881	7.5602
272	15	3	0	19.1614	18.2311	6.3652
273	15	3	0	18.2493	20.5998	6.1605
274	15	3	0	18.5609	17.4017	5.1612
275	15	3	0	19.2781	15.9861	4.9637
276	15	3	0	18.8290	15.2169	3.6659
277	15	3	0	17.3638	14.5925	3.7177
278	15	3	0	16.8808	14.3407	2.3025
279	15	3	0	15.5823	13.4801	2.2075
280	15	3	0	14.6390	14.0212	3.3523
281	15	3	0	13.2217	13.4065	3.1726
282	15	3	0	12.4265	13.6966	4.5093
283	15	3	0	17.6187	21.8749	6.6881
284	15	3	0	17.2629	22.8677	5.5140
285	15	3	0	16.7758	24.2526	5.9792
286	15	3	0	16.7324	25.2839	4.8014
287	15	3	0	16.0688	24.8191	3.4893
288	15	3	0	14.6432	24.3129	3.5970
289	15	3	0	13.5039	25.3462	3.7974
290	15	3	0	12.1562	24.6855	4.3245
291	15	3	0	12.2507	23.9412	5.6893
292	15	3	0	16.9070	17.3269	8.0932
293	15	3	0	15.5400	16.5884	7.7238
294	15	3	0	15.4187	15.0952	8.0301
295	15	3	0	16.7030	14.3447	7.9063
296	15	3	0	16.3539	12.8575	8.0371
297	15	3	0	15.5150	12.2457	6.8405
298	15	3	0	15.8572	10.8057	6.8385
299	15	3	0	15.0812	9.9994	5.7951
300	15	3	0	13.5331	9.8678	5.8103

Bonds

1	1	1	2
2	2	2	3
3	1	3	4
4	1	5	6
5	2	6	7
6	1	7	8
7	1	9	10
8	2	10	11
9	1	11	12
10	1	13	14
11	2	14	15
12	1	15	16
13	1	17	18
14	2	18	19
15	1	19	20
16	1	21	22
17	2	22	23
18	1	23	24
19	1	25	26
20	2	26	27
21	1	27	28
22	1	29	30
23	2	30	31
24	1	31	32
25	1	33	34
26	2	34	35
27	1	35	36
28	1	37	38
29	2	38	39
30	1	39	40
31	3	101	102
32	3	102	103
33	3	103	104
34	3	104	105
35	3	105	106
36	3	106	107
37	3	107	108
38	3	108	109
39	3	109	110
40	3	110	111
41	3	110	112
42	3	110	113
43	3	112	114
44	3	114	115
45	3	115	116
46	3	116	117
47	3	117	118
48	3	118	119
49	3	119	120
50	3	120	121
51	3	121	122
52	3	113	123
53	3	123	124
54	3	124	125
55	3	125	126
56	3	126	127
57	3	127	128
58	3	128	129
59	3	129	130
60	3	130	131
61	3	111	132
62	3	132	133
63	3	133	134
64	3	134	135
65	3	135	136
66	3	136	137
67	3	137	138
68	3	138	139
69	3	139	140
70	3	141	142
71	3	142	143
72	3	143	144
73	3	144	145
74	3	145	146
75	3	146	147
76	3	147	148
77	3	148	149
78	3	149	150
79	3	150	151
80	3	150	152
81	3	150	153
82	3	152	154
83	3	154	155
84	3	155	156
85	3	156	157
86	3	157	158
87	3	158	159
88	3	159	160
89	3	160	161
90	3	161	162
91	3	153	163
92	3	163	164
93	3	164	165
94	3	165	166
95	3	166	167
96	3	167	168
97	3	168	169
98	3	169	170
99	3	170	171
100	3	151	172
101	3	172	173
102	3	173	174
103	3	174	175
104	3	175	176
105	3	176	177
106	3	177	178
107	3	178	179
108	3	179	180
109	3	181	182
110	3	182	183
111	3	183	184
112	3	184	185
113	3	185	186
114	3	186	187
115	3	187	188
116	3	188	189
117	3	189	190
118	3	190	191
119	3	190	192
120	3	190	193
121	3	192	194
122	3	194	195
123	3	195	196
124	3	196	197
125	3	197	198
126	3	198	199
127	3	199	200
128	3	200	201
129	3	201	202
130	3	193	203
131	3	203	204
132	3	204	205
133	3	205	206
134	3	206	207
135	3	207	208
136	3	208	209
137	3	209	210
138	3	210	211
139	3	191	212
140	3	212	213
141	3	213	214
142	3	214	215
143	3	215	216
144	3	216	217
145	3	217	218
146	3	218	219
147	3	219	220
148	3	221	222
149	3	222	223
150	3	223	224
151	3	224	225
152	3	225	226
153	3	226	227
154	3	227	228
155	3	228	229
156	3	229	230
157	3	230	231
158	3	230	232
159	3	230	233
160	3	232	234
161	3	234	235
162	3	235	236
163	3	236	237
164	3	237	238
165	3	238	239
166	3	239	240
167	3	240	241
168	3	241	242
169	3	233	243
170	3	243	244
171	3	244	245
172	3	245	246
173	3	246	247
174	3	247	248
175	3	248	249
176	3	249	250
177	3	250	251
178	3	231	252
179	3	252	253
180	3	253	254
181	3	254	255
182	3	255	256
183	3	256	257
184	3	257	258
185	3	258	259
186	3	259	260
187	3	261	262
188	3	262	263
189	3	263	264
190	3	264	265
191	3	265	266
192	3	266	267
193	3	267	268
194	3	268	269
195	3	269	270
196	3	270	271
197	3	270	272
198	3	270	273
199	3	272	274
200	3	274	275
201	3	275	276
202	3	276	277
203	3	277	278
204	3	278	279
205	3	279	280
206	3	280	281
207	3	281	282
208	3	273	283
209	3	283	284
210	3	284	285
211	3	285	286
212	3	286	287
213	3	287	288
214	3	288	289
215	3	289	290
216	3	290	291
217	3	271	292
218	3	292	293
219	3	293	294
220	3	294	295
221	3	295	296
222	3	296	297
223	3	297	298
224	3	298	299
225	3	299	300

Angles

1	1	1	2	3
2	1	2	3	4
3	1	5	6	7
4	1	6	7	8
5	1	9	10	11
6	1	10	11	12
7	1	13	14	15
8	1	14	15	16
9	1	17	18	19
10	1	18	19	20
11	1	21	22	23
12	1	22	23	24
13	1	25	26	27
14	1	26	27	28
15	1	29	30	31
16	1	30	31	32
17	1	33	34	35
18	1	34	35	36
19	1	37	38	39
20	1	38	39	40

Dihedrals

1	1	1	2	3	4
2	1	5	6	7	8
3	1	9	10	11	12
4	1	13	14	15	16
5	1	17	18	19	20
6	1	21	22	23	24
7	1	25	26	27	28
8	1	29	30	31	32
9	1	33	34	35	36
10	1	37	38	39	40
