# data file for 10 EtOCSVinyl precursors with porosity capabilities 
0 33 xlo xhi
0 33 ylo yhi
0 33 zlo zhi

320 atoms
245 bonds
40 angles
30 dihedrals

3 atom types
3 bond types
2 angle types
8 dihedral types

Masses

	1	28
	2	16
	3	12

Angle Coeffs

	1	3.38	109.4704
	2	3.38	119.9998

Bond Coeffs

	1	20	1.8629
	2	20	1.5301
	3	20	1.3100

Dihedral Coeffs

	1	opls	0.3750	-0.2000	0.6250	-0.1000
	2	opls	0.0179	-0.0075	0.0613	-0.0025
	3	opls	0.0169	-0.0034	0.0596	-0.0029
	4	opls	0.0061	-0.0064	0.0680	-0.0032
	5	opls	5.1866	-0.7573	0.1955	-0.0484
	6	class2	0.0035	180.0000	0.0027	180.0000	0.0293	0.0000
	7	class2	0.0000	0.0000	0.0107	180.0000	0.0000	0.0000
	8	class2	5.5263	0.0000	0.0530	-180.0000	-0.4549	0.0000

MiddleBondTorsion Coeffs

	1	skip
	2	skip
	3	skip
	4	skip
	5	skip
	6	class2	0	0	0	0
	7	class2	0	0	0	0
	8	class2	0	0	0	0

EndBondTorsion Coeffs

	1	skip
	2	skip
	3	skip
	4	skip
	5	skip
	6	class2	0	0	0	0	0	0	0	0
	7	class2	0	0	0	0	0	0	0	0
	8	class2	0	0	0	0	0	0	0	0

AngleTorsion Coeffs

	1	skip
	2	skip
	3	skip
	4	skip
	5	skip
	6	class2	0	0	0	0	0	0	0	0
	7	class2	0	0	0	0	0	0	0	0
	8	class2	0	0	0	0	0	0	0	0

AngleAngleTorsion Coeffs

	1	skip
	2	skip
	3	skip
	4	skip
	5	skip
	6	class2	0	0	0
	7	class2	0	0	0
	8	class2	0	0	0

BondBond13 Coeffs

	1	skip
	2	skip
	3	skip
	4	skip
	5	skip
	6	class2	0	0	0
	7	class2	0	0	0
	8	class2	0	0	0

Atoms

1	1	1	4	18.8911	21.1381	15.9849
2	1	3	0	17.1679	21.8439	16.0397
3	1	3	0	16.1480	20.7080	15.9364
4	1	1	4	14.4248	21.4138	15.9912
5	1	3	0	13.1796	20.0270	15.8651
6	1	3	0	11.8973	20.2944	15.8834
7	2	1	4	10.1207	6.7748	19.9718
8	2	3	0	8.3975	7.4806	20.0266
9	2	3	0	7.3776	6.3447	19.9233
10	2	1	4	5.6544	7.0505	19.9781
11	2	3	0	4.4092	5.6637	19.8520
12	2	3	0	3.1269	5.9311	19.8703
13	3	1	4	24.7037	6.8087	21.7415
14	3	3	0	22.9805	7.5145	21.7963
15	3	3	0	21.9606	6.3786	21.6930
16	3	1	4	20.2374	7.0844	21.7478
17	3	3	0	18.9922	5.6976	21.6217
18	3	3	0	17.7099	5.9650	21.6400
19	4	1	4	7.3386	17.6453	18.2206
20	4	3	0	5.6154	18.3511	18.2754
21	4	3	0	4.5955	17.2152	18.1721
22	4	1	4	2.8723	17.9210	18.2269
23	4	3	0	1.6271	16.5342	18.1008
24	4	3	0	0.3448	16.8016	18.1191
25	5	1	4	13.8825	7.5016	9.2699
26	5	3	0	12.1593	8.2074	9.3247
27	5	3	0	11.1394	7.0715	9.2214
28	5	1	4	9.4162	7.7773	9.2762
29	5	3	0	8.1710	6.3905	9.1501
30	5	3	0	6.8887	6.6579	9.1684
31	6	1	4	10.0858	13.4442	7.0139
32	6	3	0	8.3626	14.1500	7.0687
33	6	3	0	7.3427	13.0141	6.9654
34	6	1	4	5.6195	13.7199	7.0202
35	6	3	0	4.3743	12.3331	6.8941
36	6	3	0	3.0920	12.6005	6.9124
37	7	1	4	23.1100	18.6372	9.6924
38	7	3	0	21.3868	19.3430	9.7472
39	7	3	0	20.3669	18.2071	9.6439
40	7	1	4	18.6437	18.9129	9.6987
41	7	3	0	17.3985	17.5261	9.5726
42	7	3	0	16.1162	17.7935	9.5909
43	8	1	4	14.0676	21.1338	8.7313
44	8	3	0	12.3444	21.8396	8.7861
45	8	3	0	11.3245	20.7037	8.6828
46	8	1	4	9.6013	21.4095	8.7376
47	8	3	0	8.3561	20.0227	8.6115
48	8	3	0	7.0738	20.2901	8.6298
49	9	1	4	24.6059	22.6493	15.5344
50	9	3	0	22.8827	23.3551	15.5892
51	9	3	0	21.8628	22.2192	15.4859
52	9	1	4	20.1396	22.9250	15.5407
53	9	3	0	18.8944	21.5382	15.4146
54	9	3	0	17.6121	21.8056	15.4329
55	10	1	4	13.8555	16.7954	17.9955
56	10	3	0	12.1323	17.5012	18.0503
57	10	3	0	11.1124	16.3653	17.9470
58	10	1	4	9.3892	17.0711	18.0018
59	10	3	0	8.1440	15.6843	17.8757
60	10	3	0	6.8617	15.9517	17.8940
60	0	2	-2	6.3565	12.8464	5.7444
61	0	2	-2	5.0151	17.2958	13.8768
62	0	2	-2	8.2324	10.3669	13.2327
63	0	2	-2	12.5272	11.6162	11.7122
64	0	2	-2	8.4343	12.6200	9.6704
65	0	2	-2	9.3243	0.2800	10.7126
66	0	2	-2	18.6140	16.6745	9.7144
67	0	2	-2	17.3052	5.7938	1.7036
68	0	2	-2	1.1114	10.2012	5.4510
69	0	2	-2	7.7385	12.3136	0.7413
70	0	2	-2	11.1563	9.6129	13.3772
71	0	2	-2	8.4970	9.4923	9.9184
72	0	2	-2	2.9787	8.3342	16.5017
73	0	2	-2	8.8564	3.3356	1.4229
74	0	2	-2	6.4334	12.2228	13.8350
75	0	2	-2	18.1931	16.6798	17.3406
76	0	2	-2	7.0974	5.6952	13.2677
77	0	2	-2	10.3056	3.2266	18.6745
78	0	2	-2	0.9795	2.3278	12.3577
79	0	2	-2	5.4974	12.1660	14.5242
80	0	2	-2	14.6075	13.8907	16.6002
81	0	2	-2	2.8458	5.1286	5.6758
82	0	2	-2	11.9755	10.8517	6.5307
83	0	2	-2	18.0183	6.4152	17.9036
84	0	2	-2	4.6626	11.8707	7.3595
85	0	2	-2	12.6475	3.5280	2.5248
86	0	2	-2	4.3354	8.5771	10.0310
87	0	2	-2	5.0618	16.0690	5.9419
88	0	2	-2	2.6383	2.3217	12.8931
89	0	2	-2	2.5932	8.1387	18.0428
90	0	2	-2	17.4881	4.6505	14.3411
91	0	2	-2	9.3394	17.6639	12.8433
92	0	2	-2	5.6374	3.0696	17.6429
93	0	2	-2	7.7651	6.2032	16.0219
94	0	2	-2	9.1497	18.6642	0.0547
95	0	2	-2	4.6070	2.2746	1.0717
96	0	2	-2	2.3995	17.6321	7.4016
97	0	2	-2	11.5470	7.8953	8.9367
98	0	2	-2	8.7895	15.0986	9.7671
99	0	2	-2	13.7133	13.8499	1.2688
100	0	2	-2	3.1450	12.6611	17.9209
101	0	2	-2	2.2465	17.8012	1.3011
102	0	2	-2	5.0971	9.7449	18.6179
103	0	2	-2	1.3231	14.8467	12.2661
104	0	2	-2	18.1354	16.1604	3.2108
105	0	2	-2	3.6523	11.4663	12.0085
106	0	2	-2	7.3945	0.9724	17.9905
107	0	2	-2	1.5417	15.5910	17.9180
108	0	2	-2	1.7015	13.3095	5.5046
109	0	2	-2	17.5629	11.9244	16.2831
110	0	2	-2	2.4314	5.9299	13.5480
111	0	2	-2	3.5332	9.1398	15.9184
112	0	2	-2	9.1877	3.5166	4.2514
113	0	2	-2	17.5188	6.8561	8.5215
114	0	2	-2	7.5957	15.0898	17.1505
115	0	2	-2	3.6140	15.1774	3.1184
116	0	2	-2	10.3910	6.4946	5.3902
117	0	2	-2	13.4858	13.5012	4.4481
118	0	2	-2	3.0482	0.2287	1.5109
119	0	2	-2	4.3667	7.0396	10.0073
121	11	3	0	16.4259	29.6499	23.3856
122	11	3	0	14.9883	29.5171	22.9017
123	11	3	0	14.3484	28.1398	22.9034
124	11	3	0	14.7696	27.1760	24.0275
125	11	3	0	13.7757	26.0098	24.2222
126	11	3	0	13.7444	25.0469	23.0370
127	11	3	0	12.8608	23.8311	23.2588
128	11	3	0	12.4319	23.1555	21.9661
129	11	3	0	11.0706	22.4574	22.1551
130	11	3	0	10.2225	22.1030	20.8449
131	11	3	0	8.8356	21.5632	21.3259
132	11	3	0	11.0963	21.0061	20.1309
133	11	3	0	10.1842	23.3749	19.9262
134	11	3	0	10.4958	20.1768	18.9269
135	11	3	0	11.2130	18.7612	18.7294
136	11	3	0	10.7639	17.9920	17.4316
137	11	3	0	9.2986	17.3676	17.4834
138	11	3	0	8.8156	17.1158	16.0682
139	11	3	0	7.5171	16.2552	15.9732
140	11	3	0	6.5739	16.7963	17.1180
141	11	3	0	5.1565	16.1816	16.9383
142	11	3	0	4.3614	16.4717	18.2750
143	11	3	0	9.5535	24.6500	20.4538
144	11	3	0	9.1978	25.6427	19.2797
145	11	3	0	8.7106	27.0277	19.7449
146	11	3	0	8.6672	28.0590	18.5671
147	11	3	0	8.0037	27.5942	17.2550
148	11	3	0	6.5780	27.0880	17.3627
149	11	3	0	5.4388	28.1213	17.5631
150	11	3	0	4.0910	27.4606	18.0902
151	11	3	0	4.1855	26.7163	19.4550
152	11	3	0	8.8418	20.1020	21.8589
153	11	3	0	7.4748	19.3635	21.4895
154	11	3	0	7.3536	17.8703	21.7958
155	11	3	0	8.6379	17.1198	21.6720
156	11	3	0	8.2887	15.6326	21.8028
157	11	3	0	7.4499	15.0208	20.6062
158	11	3	0	7.7921	13.5808	20.6042
159	11	3	0	7.0160	12.7745	19.5608
160	11	3	0	5.4680	12.6429	19.5760
161	12	3	0	15.8649	21.4250	7.6763
162	12	3	0	14.4272	21.2922	7.1924
163	12	3	0	13.7874	19.9149	7.1941
164	12	3	0	14.2086	18.9511	8.3182
165	12	3	0	13.2146	17.7849	8.5129
166	12	3	0	13.1833	16.8219	7.3278
167	12	3	0	12.2998	15.6062	7.5496
168	12	3	0	11.8709	14.9306	6.2568
169	12	3	0	10.5096	14.2324	6.4459
170	12	3	0	9.6615	13.8781	5.1356
171	12	3	0	8.2746	13.3383	5.6166
172	12	3	0	10.5352	12.7812	4.4216
173	12	3	0	9.6231	15.1500	4.2170
174	12	3	0	9.9347	11.9519	3.2176
175	12	3	0	10.6519	10.5363	3.0202
176	12	3	0	10.2028	9.7671	1.7223
177	12	3	0	8.7376	9.1427	1.7741
178	12	3	0	8.2546	8.8908	0.3589
179	12	3	0	6.9561	8.0303	0.2639
180	12	3	0	6.0128	8.5714	1.4087
181	12	3	0	4.5955	7.9567	1.2290
182	12	3	0	3.8003	8.2468	2.5658
183	12	3	0	8.9925	16.4251	4.7445
184	12	3	0	8.6367	17.4178	3.5704
185	12	3	0	8.1496	18.8027	4.0356
186	12	3	0	8.1062	19.8341	2.8579
187	12	3	0	7.4426	19.3693	1.5457
188	12	3	0	6.0170	18.8631	1.6534
189	12	3	0	4.8777	19.8964	1.8539
190	12	3	0	3.5300	19.2357	2.3809
191	12	3	0	3.6245	18.4914	3.7458
192	12	3	0	8.2808	11.8771	6.1496
193	12	3	0	6.9138	11.1386	5.7803
194	12	3	0	6.7926	9.6453	6.0866
195	12	3	0	8.0768	8.8949	5.9627
196	12	3	0	7.7277	7.4076	6.0935
197	12	3	0	6.8888	6.7958	4.8969
198	12	3	0	7.2311	5.3559	4.8950
199	12	3	0	6.4550	4.5496	3.8516
200	12	3	0	4.9069	4.4180	3.8668
201	13	3	0	24.9338	25.1186	25.5306
202	13	3	0	23.4962	24.9858	25.0467
203	13	3	0	22.8563	23.6085	25.0484
204	13	3	0	23.2775	22.6447	26.1725
205	13	3	0	22.2836	21.4785	26.3672
206	13	3	0	22.2523	20.5155	25.1820
207	13	3	0	21.3687	19.2998	25.4038
208	13	3	0	20.9398	18.6242	24.1111
209	13	3	0	19.5786	17.9260	24.3001
210	13	3	0	18.7304	17.5716	22.9899
211	13	3	0	17.3435	17.0318	23.4709
212	13	3	0	19.6042	16.4748	22.2759
213	13	3	0	18.6921	18.8436	22.0712
214	13	3	0	19.0037	15.6455	21.0719
215	13	3	0	19.7209	14.2299	20.8745
216	13	3	0	19.2718	13.4607	19.5766
217	13	3	0	17.8066	12.8363	19.6284
218	13	3	0	17.3236	12.5844	18.2132
219	13	3	0	16.0251	11.7239	18.1182
220	13	3	0	15.0818	12.2650	19.2630
221	13	3	0	13.6644	11.6503	19.0833
222	13	3	0	12.8693	11.9404	20.4200
223	13	3	0	18.0615	20.1186	22.5988
224	13	3	0	17.7057	21.1114	21.4247
225	13	3	0	17.2185	22.4963	21.8899
226	13	3	0	17.1752	23.5277	20.7121
227	13	3	0	16.5116	23.0628	19.4000
228	13	3	0	15.0859	22.5566	19.5077
229	13	3	0	13.9467	23.5900	19.7081
230	13	3	0	12.5990	22.9292	20.2352
231	13	3	0	12.6935	22.1849	21.6001
232	13	3	0	17.3497	15.5707	24.0039
233	13	3	0	15.9828	14.8322	23.6345
234	13	3	0	15.8615	13.3389	23.9408
235	13	3	0	17.1458	12.5885	23.8170
236	13	3	0	16.7967	11.1012	23.9478
237	13	3	0	15.9578	10.4894	22.7512
238	13	3	0	16.3000	9.0495	22.7493
239	13	3	0	15.5239	8.2432	21.7058
240	13	3	0	13.9759	8.1116	21.7211
241	14	3	0	23.9036	20.4073	16.0414
242	14	3	0	22.4660	20.2745	15.5575
243	14	3	0	21.8261	18.8972	15.5593
244	14	3	0	22.2473	17.9334	16.6833
245	14	3	0	21.2533	16.7672	16.8780
246	14	3	0	21.2220	15.8043	15.6929
247	14	3	0	20.3385	14.5885	15.9147
248	14	3	0	19.9096	13.9129	14.6219
249	14	3	0	18.5483	13.2148	14.8110
250	14	3	0	17.7002	12.8604	13.5007
251	14	3	0	16.3133	12.3206	13.9818
252	14	3	0	18.5739	11.7636	12.7867
253	14	3	0	17.6618	14.1323	12.5821
254	14	3	0	17.9735	10.9342	11.5828
255	14	3	0	18.6906	9.5186	11.3853
256	14	3	0	18.2415	8.7494	10.0874
257	14	3	0	16.7763	8.1250	10.1392
258	14	3	0	16.2933	7.8732	8.7240
259	14	3	0	14.9948	7.0126	8.6290
260	14	3	0	14.0515	7.5537	9.7738
261	14	3	0	12.6342	6.9390	9.5941
262	14	3	0	11.8391	7.2291	10.9309
263	14	3	0	17.0312	15.4074	13.1096
264	14	3	0	16.6754	16.4001	11.9355
265	14	3	0	16.1883	17.7851	12.4008
266	14	3	0	16.1449	18.8164	11.2230
267	14	3	0	15.4813	18.3516	9.9108
268	14	3	0	14.0557	17.8454	10.0185
269	14	3	0	12.9164	18.8787	10.2190
270	14	3	0	11.5687	18.2180	10.7460
271	14	3	0	11.6632	17.4737	12.1109
272	14	3	0	16.3195	10.8594	14.5148
273	14	3	0	14.9525	10.1209	14.1454
274	14	3	0	14.8313	8.6277	14.4517
275	14	3	0	16.1156	7.8772	14.3278
276	14	3	0	15.7664	6.3900	14.4586
277	14	3	0	14.9275	5.7782	13.2620
278	14	3	0	15.2698	4.3382	13.2601
279	14	3	0	14.4937	3.5319	12.2167
280	14	3	0	12.9456	3.4003	12.2319
281	15	3	0	16.5614	19.2283	13.4827
282	15	3	0	15.1238	19.0955	12.9989
283	15	3	0	14.4839	17.7182	13.0006
284	15	3	0	14.9052	16.7544	14.1246
285	15	3	0	13.9112	15.5882	14.3194
286	15	3	0	13.8799	14.6252	13.1342
287	15	3	0	12.9964	13.4095	13.3560
288	15	3	0	12.5674	12.7339	12.0633
289	15	3	0	11.2062	12.0357	12.2523
290	15	3	0	10.3581	11.6813	10.9421
291	15	3	0	8.9711	11.1416	11.4231
292	15	3	0	11.2318	10.5845	10.2280
293	15	3	0	10.3197	12.9533	10.0234
294	15	3	0	10.6313	9.7552	9.0241
295	15	3	0	11.3485	8.3396	8.8266
296	15	3	0	10.8994	7.5704	7.5287
297	15	3	0	9.4342	6.9460	7.5805
298	15	3	0	8.9512	6.6941	6.1653
299	15	3	0	7.6527	5.8336	6.0703
300	15	3	0	6.7094	6.3747	7.2152
301	15	3	0	5.2921	5.7600	7.0355
302	15	3	0	4.4969	6.0501	8.3722
303	15	3	0	9.6891	14.2283	10.5509
304	15	3	0	9.3333	15.2211	9.3769
305	15	3	0	8.8462	16.6060	9.8421
306	15	3	0	8.8028	17.6374	8.6643
307	15	3	0	8.1392	17.1725	7.3522
308	15	3	0	6.7136	16.6663	7.4599
309	15	3	0	5.5743	17.6997	7.6603
310	15	3	0	4.2266	17.0390	8.1873
311	15	3	0	4.3211	16.2946	9.5522
312	15	3	0	8.9774	9.6804	11.9561
313	15	3	0	7.6104	8.9419	11.5867
314	15	3	0	7.4892	7.4486	11.8930
315	15	3	0	8.7734	6.6982	11.7692
316	15	3	0	8.4243	5.2109	11.9000
317	15	3	0	7.5854	4.5991	10.7033
318	15	3	0	7.9276	3.1592	10.7014
319	15	3	0	7.1516	2.3529	9.6580
320	15	3	0	5.6035	2.2213	9.6732

Bonds

1	1	1	2
2	2	2	3
3	1	3	4
4	1	4	5
5	3	5	6
6	1	7	8
7	2	8	9
8	1	9	10
9	1	10	11
10	3	11	12
11	1	13	14
12	2	14	15
13	1	15	16
14	1	16	17
15	3	17	18
16	1	19	20
17	2	20	21
18	1	21	22
19	1	22	23
20	3	23	24
21	1	25	26
22	2	26	27
23	1	27	28
24	1	28	29
25	3	29	30
26	1	31	32
27	2	32	33
28	1	33	34
29	1	34	35
30	3	35	36
31	1	37	38
32	2	38	39
33	1	39	40
34	1	40	41
35	3	41	42
36	1	43	44
37	2	44	45
38	1	45	46
39	1	46	47
40	3	47	48
41	1	49	50
42	2	50	51
43	1	51	52
44	1	52	53
45	3	53	54
46	1	55	56
47	2	56	57
48	1	57	58
49	1	58	59
50	3	59	60
51	2	121	122
52	2	122	123
53	2	123	124
54	2	124	125
55	2	125	126
56	2	126	127
57	2	127	128
58	2	128	129
59	2	129	130
60	2	130	131
61	2	130	132
62	2	130	133
63	2	132	134
64	2	134	135
65	2	135	136
66	2	136	137
67	2	137	138
68	2	138	139
69	2	139	140
70	2	140	141
71	2	141	142
72	2	133	143
73	2	143	144
74	2	144	145
75	2	145	146
76	2	146	147
77	2	147	148
78	2	148	149
79	2	149	150
80	2	150	151
81	2	131	152
82	2	152	153
83	2	153	154
84	2	154	155
85	2	155	156
86	2	156	157
87	2	157	158
88	2	158	159
89	2	159	160
90	2	161	162
91	2	162	163
92	2	163	164
93	2	164	165
94	2	165	166
95	2	166	167
96	2	167	168
97	2	168	169
98	2	169	170
99	2	170	171
100	2	170	172
101	2	170	173
102	2	172	174
103	2	174	175
104	2	175	176
105	2	176	177
106	2	177	178
107	2	178	179
108	2	179	180
109	2	180	181
110	2	181	182
111	2	173	183
112	2	183	184
113	2	184	185
114	2	185	186
115	2	186	187
116	2	187	188
117	2	188	189
118	2	189	190
119	2	190	191
120	2	171	192
121	2	192	193
122	2	193	194
123	2	194	195
124	2	195	196
125	2	196	197
126	2	197	198
127	2	198	199
128	2	199	200
129	2	201	202
130	2	202	203
131	2	203	204
132	2	204	205
133	2	205	206
134	2	206	207
135	2	207	208
136	2	208	209
137	2	209	210
138	2	210	211
139	2	210	212
140	2	210	213
141	2	212	214
142	2	214	215
143	2	215	216
144	2	216	217
145	2	217	218
146	2	218	219
147	2	219	220
148	2	220	221
149	2	221	222
150	2	213	223
151	2	223	224
152	2	224	225
153	2	225	226
154	2	226	227
155	2	227	228
156	2	228	229
157	2	229	230
158	2	230	231
159	2	211	232
160	2	232	233
161	2	233	234
162	2	234	235
163	2	235	236
164	2	236	237
165	2	237	238
166	2	238	239
167	2	239	240
168	2	241	242
169	2	242	243
170	2	243	244
171	2	244	245
172	2	245	246
173	2	246	247
174	2	247	248
175	2	248	249
176	2	249	250
177	2	250	251
178	2	250	252
179	2	250	253
180	2	252	254
181	2	254	255
182	2	255	256
183	2	256	257
184	2	257	258
185	2	258	259
186	2	259	260
187	2	260	261
188	2	261	262
189	2	253	263
190	2	263	264
191	2	264	265
192	2	265	266
193	2	266	267
194	2	267	268
195	2	268	269
196	2	269	270
197	2	270	271
198	2	251	272
199	2	272	273
200	2	273	274
201	2	274	275
202	2	275	276
203	2	276	277
204	2	277	278
205	2	278	279
206	2	279	280
207	2	281	282
208	2	282	283
209	2	283	284
210	2	284	285
211	2	285	286
212	2	286	287
213	2	287	288
214	2	288	289
215	2	289	290
216	2	290	291
217	2	290	292
218	2	290	293
219	2	292	294
220	2	294	295
221	2	295	296
222	2	296	297
223	2	297	298
224	2	298	299
225	2	299	300
226	2	300	301
227	2	301	302
228	2	293	303
229	2	303	304
230	2	304	305
231	2	305	306
232	2	306	307
233	2	307	308
234	2	308	309
235	2	309	310
236	2	310	311
237	2	291	312
238	2	312	313
239	2	313	314
240	2	314	315
241	2	315	316
242	2	316	317
243	2	317	318
244	2	318	319
245	2	319	320

Angles

1	1	1	2	3
2	1	2	3	4
3	1	3	4	5
4	2	4	5	6
5	1	7	8	9
6	1	8	9	10
7	1	9	10	11
8	2	10	11	12
9	1	13	14	15
10	1	14	15	16
11	1	15	16	17
12	2	16	17	18
13	1	19	20	21
14	1	20	21	22
15	1	21	22	23
16	2	22	23	24
17	1	25	26	27
18	1	26	27	28
19	1	27	28	29
20	2	28	29	30
21	1	31	32	33
22	1	32	33	34
23	1	33	34	35
24	2	34	35	36
25	1	37	38	39
26	1	38	39	40
27	1	39	40	41
28	2	40	41	42
29	1	43	44	45
30	1	44	45	46
31	1	45	46	47
32	2	46	47	48
33	1	49	50	51
34	1	50	51	52
35	1	51	52	53
36	2	52	53	54
37	1	55	56	57
38	1	56	57	58
39	1	57	58	59
40	2	58	59	60

Dihedrals

1	1	1	2	3	4
2	1	2	3	4	5
3	1	3	4	5	6
4	1	7	8	9	10
5	1	8	9	10	11
6	1	9	10	11	12
7	1	13	14	15	16
8	1	14	15	16	17
9	1	15	16	17	18
10	1	19	20	21	22
11	1	20	21	22	23
12	1	21	22	23	24
13	1	25	26	27	28
14	1	26	27	28	29
15	1	27	28	29	30
16	1	31	32	33	34
17	1	32	33	34	35
18	1	33	34	35	36
19	1	37	38	39	40
20	1	38	39	40	41
21	1	39	40	41	42
22	1	43	44	45	46
23	1	44	45	46	47
24	1	45	46	47	48
25	1	49	50	51	52
26	1	50	51	52	53
27	1	51	52	53	54
28	1	55	56	57	58
29	1	56	57	58	59
30	1	57	58	59	60
