# data file for 1 EtOCSMethyl precursors with porosity capabilities 
-2 18 xlo xhi
-2 18 ylo yhi
-2 18 zlo zhi

11 atoms
4 bonds
3 angles
2 dihedrals

3 atom types
2 bond types
1 angle types
8 dihedral types

Masses

	1	28
	2	16
	3	12

Angle Coeffs

	1	3.38	109.4736

Bond Coeffs

	1	20	1.8630
	2	20	1.5299

Dihedral Coeffs

	1	opls	0.3750	-0.2000	0.6250	-0.1000
	2	opls	0.0179	-0.0075	0.0613	-0.0025
	3	opls	0.0169	-0.0034	0.0596	-0.0029
	4	opls	0.0061	-0.0064	0.0680	-0.0032
	5	opls	5.1866	-0.7573	0.1955	-0.0484
	6	class2	0.0035	180.0000	0.0027	180.0000	0.0293	0.0000
	7	class2	0.0000	0.0000	0.0107	180.0000	0.0000	0.0000
	8	class2	5.5263	0.0000	0.0530	-180.0000	-0.4549	0.0000

MiddleBondTorsion Coeffs

	1	skip
	2	skip
	3	skip
	4	skip
	5	skip
	6	class2	0	0	0	0
	7	class2	0	0	0	0
	8	class2	0	0	0	0

EndBondTorsion Coeffs

	1	skip
	2	skip
	3	skip
	4	skip
	5	skip
	6	class2	0	0	0	0	0	0	0	0
	7	class2	0	0	0	0	0	0	0	0
	8	class2	0	0	0	0	0	0	0	0

AngleTorsion Coeffs

	1	skip
	2	skip
	3	skip
	4	skip
	5	skip
	6	class2	0	0	0	0	0	0	0	0
	7	class2	0	0	0	0	0	0	0	0
	8	class2	0	0	0	0	0	0	0	0

AngleAngleTorsion Coeffs

	1	skip
	2	skip
	3	skip
	4	skip
	5	skip
	6	class2	0	0	0
	7	class2	0	0	0
	8	class2	0	0	0

BondBond13 Coeffs

	1	skip
	2	skip
	3	skip
	4	skip
	5	skip
	6	class2	0	0	0
	7	class2	0	0	0
	8	class2	0	0	0

Atoms

1	1	1	4	13.6294	8.8814	7.3933
2	1	3	0	11.8617	9.2022	6.9002
3	1	3	0	10.9224	8.5172	7.8948
4	1	1	4	9.1547	8.8380	7.4017
5	1	3	0	8.8322	10.6729	7.4057
5	0	2	-2	4.0316	5.4114	6.7876
6	0	2	-2	7.0026	8.7198	6.4869
7	0	2	-2	7.3558	7.4755	4.2197
8	0	2	-2	2.5431	3.6720	3.3334
9	0	2	-2	6.2421	2.2261	2.8190
10	0	2	-2	8.3051	10.0632	4.9845

Bonds

1	1	1	2
2	2	2	3
3	1	3	4
4	1	4	5

Angles

1	1	1	2	3
2	1	2	3	4
3	1	3	4	5

Dihedrals

1	1	1	2	3	4
2	2	2	3	4	5
