# data file for 1 EtOCSVinyl precursors with porosity capabilities 
0 11 xlo xhi
0 11 ylo yhi
0 11 zlo zhi

12 atoms
5 bonds
4 angles
3 dihedrals

3 atom types
3 bond types
2 angle types
8 dihedral types

Masses

	1	28
	2	16
	3	12

Angle Coeffs

	1	3.38	109.4704
	2	3.38	119.9998

Bond Coeffs

	1	20	1.8629
	2	20	1.5301
	3	20	1.3100

Dihedral Coeffs

	1	opls	0.3750	-0.2000	0.6250	-0.1000
	2	opls	0.0179	-0.0075	0.0613	-0.0025
	3	opls	0.0169	-0.0034	0.0596	-0.0029
	4	opls	0.0061	-0.0064	0.0680	-0.0032
	5	opls	5.1866	-0.7573	0.1955	-0.0484
	6	class2	0.0035	180.0000	0.0027	180.0000	0.0293	0.0000
	7	class2	0.0000	0.0000	0.0107	180.0000	0.0000	0.0000
	8	class2	5.5263	0.0000	0.0530	-180.0000	-0.4549	0.0000

MiddleBondTorsion Coeffs

	1	skip
	2	skip
	3	skip
	4	skip
	5	skip
	6	class2	0	0	0	0
	7	class2	0	0	0	0
	8	class2	0	0	0	0

EndBondTorsion Coeffs

	1	skip
	2	skip
	3	skip
	4	skip
	5	skip
	6	class2	0	0	0	0	0	0	0	0
	7	class2	0	0	0	0	0	0	0	0
	8	class2	0	0	0	0	0	0	0	0

AngleTorsion Coeffs

	1	skip
	2	skip
	3	skip
	4	skip
	5	skip
	6	class2	0	0	0	0	0	0	0	0
	7	class2	0	0	0	0	0	0	0	0
	8	class2	0	0	0	0	0	0	0	0

AngleAngleTorsion Coeffs

	1	skip
	2	skip
	3	skip
	4	skip
	5	skip
	6	class2	0	0	0
	7	class2	0	0	0
	8	class2	0	0	0

BondBond13 Coeffs

	1	skip
	2	skip
	3	skip
	4	skip
	5	skip
	6	class2	0	0	0
	7	class2	0	0	0
	8	class2	0	0	0

Atoms

1	1	1	4	5.3638	2.3683	2.3609
2	1	3	0	3.6406	3.0741	2.4157
3	1	3	0	2.6207	1.9382	2.3124
4	1	1	4	0.8975	2.6440	2.3672
5	1	3	0	-0.3477	1.2572	2.2411
6	1	3	0	-1.6300	1.5246	2.2594
6	0	2	-2	-2.2442	-1.9664	-0.9187
7	0	2	-2	-1.1774	-0.6000	-3.0210
8	0	2	-2	-2.3267	-3.7054	-0.2849
9	0	2	-2	-1.2301	-3.2389	-0.5179
10	0	2	-2	-0.5850	-0.2352	-3.4932
11	0	2	-2	-3.3017	-0.6077	-3.3642

Bonds

1	1	1	2
2	2	2	3
3	1	3	4
4	1	4	5
5	3	5	6

Angles

1	1	1	2	3
2	1	2	3	4
3	1	3	4	5
4	2	4	5	6

Dihedrals

1	1	1	2	3	4
2	3	2	3	4	5
3	6	3	4	5	6
