# data file for 1 EtOCSPhenyl precursors with porosity capabilities 
0 12 xlo xhi
0 12 ylo yhi
0 12 zlo zhi

16 atoms
10 bonds
11 angles
12 dihedrals

3 atom types
3 bond types
2 angle types
8 dihedral types

Masses

	1	28
	2	16
	3	12

Angle Coeffs

	1	3.38	109.4680
	2	3.38	120.0001

Bond Coeffs

	1	20	1.8630
	2	20	1.5300
	3	20	1.3823

Dihedral Coeffs

	1	opls	0.3750	-0.2000	0.6250	-0.1000
	2	opls	0.0179	-0.0075	0.0613	-0.0025
	3	opls	0.0169	-0.0034	0.0596	-0.0029
	4	opls	0.0061	-0.0064	0.0680	-0.0032
	5	opls	5.1866	-0.7573	0.1955	-0.0484
	6	class2	0.0035	180.0000	0.0027	180.0000	0.0293	0.0000
	7	class2	0.0000	0.0000	0.0107	180.0000	0.0000	0.0000
	8	class2	5.5263	0.0000	0.0530	-180.0000	-0.4549	0.0000

MiddleBondTorsion Coeffs

	1	skip
	2	skip
	3	skip
	4	skip
	5	skip
	6	class2	0	0	0	0
	7	class2	0	0	0	0
	8	class2	0	0	0	0

EndBondTorsion Coeffs

	1	skip
	2	skip
	3	skip
	4	skip
	5	skip
	6	class2	0	0	0	0	0	0	0	0
	7	class2	0	0	0	0	0	0	0	0
	8	class2	0	0	0	0	0	0	0	0

AngleTorsion Coeffs

	1	skip
	2	skip
	3	skip
	4	skip
	5	skip
	6	class2	0	0	0	0	0	0	0	0
	7	class2	0	0	0	0	0	0	0	0
	8	class2	0	0	0	0	0	0	0	0

AngleAngleTorsion Coeffs

	1	skip
	2	skip
	3	skip
	4	skip
	5	skip
	6	class2	0	0	0
	7	class2	0	0	0
	8	class2	0	0	0

BondBond13 Coeffs

	1	skip
	2	skip
	3	skip
	4	skip
	5	skip
	6	class2	0	0	0
	7	class2	0	0	0
	8	class2	0	0	0

Atoms

1	1	1	4	7.4753	2.1189	2.3602
2	1	3	0	6.0185	3.2802	2.3577
3	1	3	0	4.7206	2.4701	2.3663
4	1	1	4	3.2638	3.6314	2.3637
5	1	3	0	1.6791	2.6425	2.3742
6	1	3	0	1.0963	2.2836	3.5752
7	1	3	0	-0.0766	1.5521	3.5830
8	1	3	0	-0.6667	1.1795	2.3897
9	1	3	0	-0.0839	1.5384	1.1887
10	1	3	0	1.0862	2.2743	1.1809
10	0	2	-2	-1.2310	-0.5469	-0.0390
11	0	2	-2	-1.2359	-0.1846	-2.4092
12	0	2	-2	-0.2026	-1.9556	-2.4472
13	0	2	-2	-0.9638	-0.6695	-1.3468
14	0	2	-2	-2.0742	-0.9424	-1.5424
15	0	2	-2	-0.0405	-0.5047	-1.0212

Bonds

1	1	1	2
2	2	2	3
3	1	3	4
4	1	4	5
5	3	5	6
6	3	5	10
7	3	6	7
8	3	7	8
9	3	8	9
10	3	9	10

Angles

1	1	1	2	3
2	1	2	3	4
3	1	3	4	5
4	2	4	5	6
5	2	4	5	10
6	2	6	5	10
7	2	5	6	7
8	2	6	7	8
9	2	7	8	9
10	2	8	9	10
11	2	5	10	9

Dihedrals

1	1	1	2	3	4
2	4	2	3	4	5
3	7	3	4	5	6
4	7	3	4	5	10
5	5	4	5	6	7
6	5	4	5	10	9
7	8	5	6	7	8
8	8	5	10	9	8
9	8	6	5	10	9
10	8	6	7	8	9
11	8	7	6	5	10
12	8	7	8	9	10
