# data file for 1 EtOCS precursors with porosity capabilities 
0 10 xlo xhi
0 10 ylo yhi
0 10 zlo zhi

10 atoms
3 bonds
2 angles
1 dihedrals

3 atom types
3 bond types
1 angle types
8 dihedral types

Masses

	1	28
	2	16
	3	12

Angle Coeffs

	1	3.38	109.5185

Bond Coeffs

	1	20	1.9000
	2	20	1.5384
	3	20	1.5227

Dihedral Coeffs

	1	opls	0.3750	-0.2000	0.6250	-0.1000
	2	opls	0.0179	-0.0075	0.0613	-0.0025
	3	opls	0.0169	-0.0034	0.0596	-0.0029
	4	opls	0.0061	-0.0064	0.0680	-0.0032
	5	opls	5.1866	-0.7573	0.1955	-0.0484
	6	class2	0.0035	180.0000	0.0027	180.0000	0.0293	0.0000
	7	class2	0.0000	0.0000	0.0107	180.0000	0.0000	0.0000
	8	class2	5.5263	0.0000	0.0530	-180.0000	-0.4549	0.0000

MiddleBondTorsion Coeffs

	1	skip
	2	skip
	3	skip
	4	skip
	5	skip
	6	class2	0	0	0	0
	7	class2	0	0	0	0
	8	class2	0	0	0	0

EndBondTorsion Coeffs

	1	skip
	2	skip
	3	skip
	4	skip
	5	skip
	6	class2	0	0	0	0	0	0	0	0
	7	class2	0	0	0	0	0	0	0	0
	8	class2	0	0	0	0	0	0	0	0

AngleTorsion Coeffs

	1	skip
	2	skip
	3	skip
	4	skip
	5	skip
	6	class2	0	0	0	0	0	0	0	0
	7	class2	0	0	0	0	0	0	0	0
	8	class2	0	0	0	0	0	0	0	0

AngleAngleTorsion Coeffs

	1	skip
	2	skip
	3	skip
	4	skip
	5	skip
	6	class2	0	0	0
	7	class2	0	0	0
	8	class2	0	0	0

BondBond13 Coeffs

	1	skip
	2	skip
	3	skip
	4	skip
	5	skip
	6	class2	0	0	0
	7	class2	0	0	0
	8	class2	0	0	0

Atoms

1	1	1	4	-2.4974	-4.2705	-2.1536
2	1	3	0	-2.4974	-4.2705	-0.2536
3	1	3	0	-2.4974	-2.8205	0.2604
4	1	1	4	-2.4974	-2.8205	2.1604
4	0	2	-2	-4.0093	-2.7164	-0.4363
5	0	2	-2	-2.8930	-3.1800	-2.9327
6	0	2	-2	-1.5283	-0.2328	-1.7539
7	0	2	-2	-3.3255	-1.5057	-2.3841
8	0	2	-2	-1.1569	-3.2479	-4.1648
9	0	2	-2	-4.1187	-1.3362	-0.4875

Bonds

1	1	1	2
2	2	2	3
3	1	3	4

Angles

1	1	1	2	3
2	1	2	3	4

Dihedrals

1	1	1	2	3	4
