# data file for 100 EtOCS precursors with porosity capabilities 
-4 52 xlo xhi
-4 52 ylo yhi
-4 52 zlo zhi

666 atoms
300 bonds
200 angles
100 dihedrals

3 atom types
3 bond types
1 angle types
11 dihedral types

Masses

	1	28
	2	16
	3	12

Angle Coeffs

	1	3.38	109.5185

Bond Coeffs

	1	20	1.9000
	2	20	1.5384
	3	20	1.5227

Dihedral Coeffs

	1	opls	0.3750	-0.2000	0.6250	-0.1000
	2	opls	0.0179	-0.0075	0.0613	-0.0025
	3	opls	0.0169	-0.0034	0.0596	-0.0029
	4	opls	0.0061	-0.0064	0.0680	-0.0032
	5	opls	5.1866	-0.7573	0.1955	-0.0484
	6	opls	0.0865	-0.0347	0.1369	0.0009
	7	opls	0.0260	-0.0152	0.0313	-0.0022
	8	class2	0.0035	180.0000	0.0027	180.0000	0.0293	0.0000
	9	class2	0.0000	0.0000	0.0107	180.0000	0.0000	0.0000
	10	class2	5.5263	0.0000	0.0530	-180.0000	-0.4549	0.0000
	11	class2	-0.0021	180.0000	0.0068	-180.0000	0.0249	180.0000

MiddleBondTorsion Coeffs

	1	opls
	2	opls
	3	opls
	4	opls
	5	opls
	6	opls
	7	opls
	8	class2	0	0	0	0
	9	class2	0	0	0	0
	10	class2	0	0	0	0
	11	class2	0	0	0	0

EndBondTorsion Coeffs

	1	opls
	2	opls
	3	opls
	4	opls
	5	opls
	6	opls
	7	opls
	8	class2	0	0	0	0	0	0	0	0
	9	class2	0	0	0	0	0	0	0	0
	10	class2	0	0	0	0	0	0	0	0
	11	class2	0	0	0	0	0	0	0	0

AngleTorsion Coeffs

	1	opls
	2	opls
	3	opls
	4	opls
	5	opls
	6	opls
	7	opls
	8	class2	0	0	0	0	0	0	0	0
	9	class2	0	0	0	0	0	0	0	0
	10	class2	0	0	0	0	0	0	0	0
	11	class2	0	0	0	0	0	0	0	0

AngleAngleTorsion Coeffs

	1	opls
	2	opls
	3	opls
	4	opls
	5	opls
	6	opls
	7	opls
	8	class2	0	0	0
	9	class2	0	0	0
	10	class2	0	0	0
	11	class2	0	0	0

BondBond13 Coeffs

	1	opls
	2	opls
	3	opls
	4	opls
	5	opls
	6	opls
	7	opls
	8	class2	0	0	0
	9	class2	0	0	0
	10	class2	0	0	0
	11	class2	0	0	0

Atoms

1	1	1	4	10.7377	33.3387	5.8928
2	1	3	0	10.7377	33.3387	7.7928
3	1	3	0	10.7377	34.7887	8.3068
4	1	1	4	10.7377	34.7887	10.2068
5	2	1	4	19.2281	40.2195	33.6796
6	2	3	0	19.2281	40.2195	35.5796
7	2	3	0	19.2281	41.6695	36.0936
8	2	1	4	19.2281	41.6695	37.9936
9	3	1	4	2.1329	1.9991	28.0680
10	3	3	0	2.1329	1.9991	29.9680
11	3	3	0	2.1329	3.4491	30.4820
12	3	1	4	2.1329	3.4491	32.3820
13	4	1	4	28.4216	21.4451	28.8532
14	4	3	0	28.4216	21.4451	30.7532
15	4	3	0	28.4216	22.8951	31.2672
16	4	1	4	28.4216	22.8951	33.1672
17	5	1	4	25.7905	33.1831	34.7788
18	5	3	0	25.7905	33.1831	36.6788
19	5	3	0	25.7905	34.6331	37.1928
20	5	1	4	25.7905	34.6331	39.0928
21	6	1	4	37.6831	41.6761	18.5040
22	6	3	0	37.6831	41.6761	20.4040
23	6	3	0	37.6831	43.1261	20.9180
24	6	1	4	37.6831	43.1261	22.8180
25	7	1	4	32.4856	20.3524	29.9103
26	7	3	0	32.4856	20.3524	31.8103
27	7	3	0	32.4856	21.8024	32.3243
28	7	1	4	32.4856	21.8024	34.2243
29	8	1	4	35.1953	17.4889	17.8572
30	8	3	0	35.1953	17.4889	19.7572
31	8	3	0	35.1953	18.9389	20.2712
32	8	1	4	35.1953	18.9389	22.1712
33	9	1	4	40.2698	2.9801	15.9983
34	9	3	0	40.2698	2.9801	17.8983
35	9	3	0	40.2698	4.4301	18.4123
36	9	1	4	40.2698	4.4301	20.3123
37	10	1	4	12.1682	42.2529	26.0492
38	10	3	0	12.1682	42.2529	27.9492
39	10	3	0	12.1682	43.7029	28.4632
40	10	1	4	12.1682	43.7029	30.3632
41	11	1	4	1.4950	37.7044	12.1287
42	11	3	0	1.4950	37.7044	14.0287
43	11	3	0	1.4950	39.1544	14.5427
44	11	1	4	1.4950	39.1544	16.4427
45	12	1	4	35.7047	40.9667	35.4510
46	12	3	0	35.7047	40.9667	37.3510
47	12	3	0	35.7047	42.4167	37.8650
48	12	1	4	35.7047	42.4167	39.7650
49	13	1	4	6.6802	3.5821	5.2786
50	13	3	0	6.6802	3.5821	7.1786
51	13	3	0	6.6802	5.0321	7.6926
52	13	1	4	6.6802	5.0321	9.5926
53	14	1	4	40.6178	37.3591	30.7087
54	14	3	0	40.6178	37.3591	32.6087
55	14	3	0	40.6178	38.8091	33.1227
56	14	1	4	40.6178	38.8091	35.0227
57	15	1	4	4.8828	1.8234	19.5260
58	15	3	0	4.8828	1.8234	21.4260
59	15	3	0	4.8828	3.2734	21.9400
60	15	1	4	4.8828	3.2734	23.8400
61	16	1	4	36.8758	22.4144	0.8021
62	16	3	0	36.8758	22.4144	2.7021
63	16	3	0	36.8758	23.8644	3.2161
64	16	1	4	36.8758	23.8644	5.1161
65	17	1	4	38.6812	29.5008	42.8960
66	17	3	0	38.6812	29.5008	44.7960
67	17	3	0	38.6812	30.9508	45.3100
68	17	1	4	38.6812	30.9508	47.2100
69	18	1	4	14.9229	1.0469	39.6587
70	18	3	0	14.9229	1.0469	41.5587
71	18	3	0	14.9229	2.4969	42.0727
72	18	1	4	14.9229	2.4969	43.9727
73	19	1	4	39.6252	13.1799	15.1059
74	19	3	0	39.6252	13.1799	17.0059
75	19	3	0	39.6252	14.6299	17.5199
76	19	1	4	39.6252	14.6299	19.4199
77	20	1	4	29.3581	19.7005	40.3903
78	20	3	0	29.3581	19.7005	42.2903
79	20	3	0	29.3581	21.1505	42.8043
80	20	1	4	29.3581	21.1505	44.7043
81	21	1	4	19.5131	41.4718	24.0330
82	21	3	0	19.5131	41.4718	25.9330
83	21	3	0	19.5131	42.9218	26.4470
84	21	1	4	19.5131	42.9218	28.3470
85	22	1	4	18.2245	1.0750	32.7659
86	22	3	0	18.2245	1.0750	34.6659
87	22	3	0	18.2245	2.5250	35.1799
88	22	1	4	18.2245	2.5250	37.0799
89	23	1	4	7.4065	32.6408	30.9470
90	23	3	0	7.4065	32.6408	32.8470
91	23	3	0	7.4065	34.0908	33.3610
92	23	1	4	7.4065	34.0908	35.2610
93	24	1	4	27.2836	16.0082	22.5697
94	24	3	0	27.2836	16.0082	24.4697
95	24	3	0	27.2836	17.4582	24.9837
96	24	1	4	27.2836	17.4582	26.8837
97	25	1	4	18.9804	5.1947	38.9283
98	25	3	0	18.9804	5.1947	40.8283
99	25	3	0	18.9804	6.6447	41.3423
100	25	1	4	18.9804	6.6447	43.2423
101	26	1	4	11.2228	15.8808	4.2131
102	26	3	0	11.2228	15.8808	6.1131
103	26	3	0	11.2228	17.3308	6.6271
104	26	1	4	11.2228	17.3308	8.5271
105	27	1	4	12.2361	19.0765	8.2396
106	27	3	0	12.2361	19.0765	10.1396
107	27	3	0	12.2361	20.5265	10.6536
108	27	1	4	12.2361	20.5265	12.5536
109	28	1	4	6.3503	6.9023	36.2000
110	28	3	0	6.3503	6.9023	38.1000
111	28	3	0	6.3503	8.3523	38.6140
112	28	1	4	6.3503	8.3523	40.5140
113	29	1	4	6.4952	35.6953	26.4610
114	29	3	0	6.4952	35.6953	28.3610
115	29	3	0	6.4952	37.1453	28.8750
116	29	1	4	6.4952	37.1453	30.7750
117	30	1	4	3.3192	28.0341	21.1906
118	30	3	0	3.3192	28.0341	23.0906
119	30	3	0	3.3192	29.4841	23.6046
120	30	1	4	3.3192	29.4841	25.5046
121	31	1	4	10.8896	40.9508	30.8995
122	31	3	0	10.8896	40.9508	32.7995
123	31	3	0	10.8896	42.4008	33.3135
124	31	1	4	10.8896	42.4008	35.2135
125	32	1	4	3.1741	34.0824	34.7378
126	32	3	0	3.1741	34.0824	36.6378
127	32	3	0	3.1741	35.5324	37.1518
128	32	1	4	3.1741	35.5324	39.0518
129	33	1	4	41.7719	10.7129	19.4823
130	33	3	0	41.7719	10.7129	21.3823
131	33	3	0	41.7719	12.1629	21.8963
132	33	1	4	41.7719	12.1629	23.7963
133	34	1	4	20.4875	13.6485	3.4560
134	34	3	0	20.4875	13.6485	5.3560
135	34	3	0	20.4875	15.0985	5.8700
136	34	1	4	20.4875	15.0985	7.7700
137	35	1	4	10.7260	41.7685	3.8464
138	35	3	0	10.7260	41.7685	5.7464
139	35	3	0	10.7260	43.2185	6.2604
140	35	1	4	10.7260	43.2185	8.1604
141	36	1	4	10.6567	19.5164	39.0223
142	36	3	0	10.6567	19.5164	40.9223
143	36	3	0	10.6567	20.9664	41.4363
144	36	1	4	10.6567	20.9664	43.3363
145	37	1	4	40.6034	19.9843	11.1927
146	37	3	0	40.6034	19.9843	13.0927
147	37	3	0	40.6034	21.4343	13.6067
148	37	1	4	40.6034	21.4343	15.5067
149	38	1	4	42.0221	21.0317	11.7396
150	38	3	0	42.0221	21.0317	13.6396
151	38	3	0	42.0221	22.4817	14.1536
152	38	1	4	42.0221	22.4817	16.0536
153	39	1	4	3.4016	5.3911	35.5221
154	39	3	0	3.4016	5.3911	37.4221
155	39	3	0	3.4016	6.8411	37.9361
156	39	1	4	3.4016	6.8411	39.8361
157	40	1	4	1.7739	29.6443	8.4786
158	40	3	0	1.7739	29.6443	10.3786
159	40	3	0	1.7739	31.0943	10.8926
160	40	1	4	1.7739	31.0943	12.7926
161	41	1	4	25.3188	39.1028	42.0895
162	41	3	0	25.3188	39.1028	43.9895
163	41	3	0	25.3188	40.5528	44.5035
164	41	1	4	25.3188	40.5528	46.4035
165	42	1	4	37.6193	36.8066	24.7542
166	42	3	0	37.6193	36.8066	26.6542
167	42	3	0	37.6193	38.2566	27.1682
168	42	1	4	37.6193	38.2566	29.0682
169	43	1	4	34.6736	24.9552	11.8629
170	43	3	0	34.6736	24.9552	13.7629
171	43	3	0	34.6736	26.4052	14.2769
172	43	1	4	34.6736	26.4052	16.1769
173	44	1	4	33.1696	38.9379	26.3935
174	44	3	0	33.1696	38.9379	28.2935
175	44	3	0	33.1696	40.3879	28.8075
176	44	1	4	33.1696	40.3879	30.7075
177	45	1	4	19.3999	17.5804	1.9419
178	45	3	0	19.3999	17.5804	3.8419
179	45	3	0	19.3999	19.0304	4.3559
180	45	1	4	19.3999	19.0304	6.2559
181	46	1	4	23.1090	42.9765	23.8609
182	46	3	0	23.1090	42.9765	25.7609
183	46	3	0	23.1090	44.4265	26.2749
184	46	1	4	23.1090	44.4265	28.1749
185	47	1	4	5.1273	27.1517	26.8695
186	47	3	0	5.1273	27.1517	28.7695
187	47	3	0	5.1273	28.6017	29.2835
188	47	1	4	5.1273	28.6017	31.1835
189	48	1	4	4.5886	39.4722	30.4774
190	48	3	0	4.5886	39.4722	32.3774
191	48	3	0	4.5886	40.9222	32.8914
192	48	1	4	4.5886	40.9222	34.7914
193	49	1	4	24.2967	22.7304	31.8956
194	49	3	0	24.2967	22.7304	33.7956
195	49	3	0	24.2967	24.1804	34.3096
196	49	1	4	24.2967	24.1804	36.2096
197	50	1	4	2.7907	14.8654	14.9649
198	50	3	0	2.7907	14.8654	16.8649
199	50	3	0	2.7907	16.3154	17.3789
200	50	1	4	2.7907	16.3154	19.2789
201	51	1	4	27.7477	21.0136	2.7497
202	51	3	0	27.7477	21.0136	4.6497
203	51	3	0	27.7477	22.4636	5.1637
204	51	1	4	27.7477	22.4636	7.0637
205	52	1	4	15.8548	38.9123	4.1633
206	52	3	0	15.8548	38.9123	6.0633
207	52	3	0	15.8548	40.3623	6.5773
208	52	1	4	15.8548	40.3623	8.4773
209	53	1	4	18.1200	10.4030	35.6546
210	53	3	0	18.1200	10.4030	37.5546
211	53	3	0	18.1200	11.8530	38.0686
212	53	1	4	18.1200	11.8530	39.9686
213	54	1	4	6.1336	6.8028	14.3810
214	54	3	0	6.1336	6.8028	16.2810
215	54	3	0	6.1336	8.2528	16.7950
216	54	1	4	6.1336	8.2528	18.6950
217	55	1	4	27.8000	26.4732	30.2447
218	55	3	0	27.8000	26.4732	32.1447
219	55	3	0	27.8000	27.9232	32.6587
220	55	1	4	27.8000	27.9232	34.5587
221	56	1	4	11.9758	12.4274	42.8660
222	56	3	0	11.9758	12.4274	44.7660
223	56	3	0	11.9758	13.8774	45.2800
224	56	1	4	11.9758	13.8774	47.1800
225	57	1	4	19.7477	0.9122	5.4555
226	57	3	0	19.7477	0.9122	7.3555
227	57	3	0	19.7477	2.3622	7.8695
228	57	1	4	19.7477	2.3622	9.7695
229	58	1	4	37.0965	23.6751	12.1823
230	58	3	0	37.0965	23.6751	14.0823
231	58	3	0	37.0965	25.1251	14.5963
232	58	1	4	37.0965	25.1251	16.4963
233	59	1	4	12.9014	43.0431	19.4965
234	59	3	0	12.9014	43.0431	21.3965
235	59	3	0	12.9014	44.4931	21.9105
236	59	1	4	12.9014	44.4931	23.8105
237	60	1	4	0.1798	11.2102	13.1762
238	60	3	0	0.1798	11.2102	15.0762
239	60	3	0	0.1798	12.6602	15.5902
240	60	1	4	0.1798	12.6602	17.4902
241	61	1	4	26.4896	2.8093	32.7934
242	61	3	0	26.4896	2.8093	34.6934
243	61	3	0	26.4896	4.2593	35.2074
244	61	1	4	26.4896	4.2593	37.1074
245	62	1	4	28.1442	33.8031	1.0190
246	62	3	0	28.1442	33.8031	2.9190
247	62	3	0	28.1442	35.2531	3.4330
248	62	1	4	28.1442	35.2531	5.3330
249	63	1	4	33.6132	33.6636	34.6929
250	63	3	0	33.6132	33.6636	36.5929
251	63	3	0	33.6132	35.1136	37.1069
252	63	1	4	33.6132	35.1136	39.0069
253	64	1	4	16.7861	4.0277	22.6088
254	64	3	0	16.7861	4.0277	24.5088
255	64	3	0	16.7861	5.4777	25.0228
256	64	1	4	16.7861	5.4777	26.9228
257	65	1	4	22.3887	40.6749	0.2337
258	65	3	0	22.3887	40.6749	2.1337
259	65	3	0	22.3887	42.1249	2.6477
260	65	1	4	22.3887	42.1249	4.5477
261	66	1	4	33.1192	30.9712	25.6760
262	66	3	0	33.1192	30.9712	27.5760
263	66	3	0	33.1192	32.4212	28.0900
264	66	1	4	33.1192	32.4212	29.9900
265	67	1	4	40.4558	38.6098	40.6284
266	67	3	0	40.4558	38.6098	42.5284
267	67	3	0	40.4558	40.0598	43.0424
268	67	1	4	40.4558	40.0598	44.9424
269	68	1	4	13.8049	26.1508	25.4151
270	68	3	0	13.8049	26.1508	27.3151
271	68	3	0	13.8049	27.6008	27.8291
272	68	1	4	13.8049	27.6008	29.7291
273	69	1	4	9.8934	35.9469	40.5397
274	69	3	0	9.8934	35.9469	42.4397
275	69	3	0	9.8934	37.3969	42.9537
276	69	1	4	9.8934	37.3969	44.8537
277	70	1	4	10.4698	21.8929	34.1524
278	70	3	0	10.4698	21.8929	36.0524
279	70	3	0	10.4698	23.3429	36.5664
280	70	1	4	10.4698	23.3429	38.4664
281	71	1	4	23.5323	30.5482	13.4519
282	71	3	0	23.5323	30.5482	15.3519
283	71	3	0	23.5323	31.9982	15.8659
284	71	1	4	23.5323	31.9982	17.7659
285	72	1	4	36.0767	13.8730	12.3791
286	72	3	0	36.0767	13.8730	14.2791
287	72	3	0	36.0767	15.3230	14.7931
288	72	1	4	36.0767	15.3230	16.6931
289	73	1	4	37.0880	8.5710	9.0345
290	73	3	0	37.0880	8.5710	10.9345
291	73	3	0	37.0880	10.0210	11.4485
292	73	1	4	37.0880	10.0210	13.3485
293	74	1	4	17.9488	28.0357	6.5332
294	74	3	0	17.9488	28.0357	8.4332
295	74	3	0	17.9488	29.4857	8.9472
296	74	1	4	17.9488	29.4857	10.8472
297	75	1	4	14.9750	25.2155	40.5611
298	75	3	0	14.9750	25.2155	42.4611
299	75	3	0	14.9750	26.6655	42.9751
300	75	1	4	14.9750	26.6655	44.8751
301	76	1	4	34.3475	19.0451	36.3726
302	76	3	0	34.3475	19.0451	38.2726
303	76	3	0	34.3475	20.4951	38.7866
304	76	1	4	34.3475	20.4951	40.6866
305	77	1	4	4.9772	28.6399	21.0959
306	77	3	0	4.9772	28.6399	22.9959
307	77	3	0	4.9772	30.0899	23.5099
308	77	1	4	4.9772	30.0899	25.4099
309	78	1	4	31.7475	39.2058	10.3304
310	78	3	0	31.7475	39.2058	12.2304
311	78	3	0	31.7475	40.6558	12.7444
312	78	1	4	31.7475	40.6558	14.6444
313	79	1	4	30.0580	37.8002	26.3399
314	79	3	0	30.0580	37.8002	28.2399
315	79	3	0	30.0580	39.2502	28.7539
316	79	1	4	30.0580	39.2502	30.6539
317	80	1	4	11.2816	36.3445	18.4112
318	80	3	0	11.2816	36.3445	20.3112
319	80	3	0	11.2816	37.7945	20.8252
320	80	1	4	11.2816	37.7945	22.7252
321	81	1	4	31.1313	3.3547	0.4586
322	81	3	0	31.1313	3.3547	2.3586
323	81	3	0	31.1313	4.8047	2.8726
324	81	1	4	31.1313	4.8047	4.7726
325	82	1	4	16.8572	37.3755	29.1518
326	82	3	0	16.8572	37.3755	31.0518
327	82	3	0	16.8572	38.8255	31.5658
328	82	1	4	16.8572	38.8255	33.4658
329	83	1	4	26.2718	3.2134	6.0745
330	83	3	0	26.2718	3.2134	7.9745
331	83	3	0	26.2718	4.6634	8.4885
332	83	1	4	26.2718	4.6634	10.3885
333	84	1	4	18.1484	42.2447	22.8703
334	84	3	0	18.1484	42.2447	24.7703
335	84	3	0	18.1484	43.6947	25.2843
336	84	1	4	18.1484	43.6947	27.1843
337	85	1	4	19.6528	21.4359	29.0718
338	85	3	0	19.6528	21.4359	30.9718
339	85	3	0	19.6528	22.8859	31.4858
340	85	1	4	19.6528	22.8859	33.3858
341	86	1	4	29.7199	10.3288	12.8011
342	86	3	0	29.7199	10.3288	14.7011
343	86	3	0	29.7199	11.7788	15.2151
344	86	1	4	29.7199	11.7788	17.1151
345	87	1	4	37.1656	1.3787	12.0266
346	87	3	0	37.1656	1.3787	13.9266
347	87	3	0	37.1656	2.8287	14.4406
348	87	1	4	37.1656	2.8287	16.3406
349	88	1	4	0.1543	32.4913	1.1496
350	88	3	0	0.1543	32.4913	3.0496
351	88	3	0	0.1543	33.9413	3.5636
352	88	1	4	0.1543	33.9413	5.4636
353	89	1	4	35.5051	11.9090	25.3923
354	89	3	0	35.5051	11.9090	27.2923
355	89	3	0	35.5051	13.3590	27.8063
356	89	1	4	35.5051	13.3590	29.7063
357	90	1	4	4.1996	26.6953	20.9774
358	90	3	0	4.1996	26.6953	22.8774
359	90	3	0	4.1996	28.1453	23.3914
360	90	1	4	4.1996	28.1453	25.2914
361	91	1	4	17.1791	32.0577	32.0649
362	91	3	0	17.1791	32.0577	33.9649
363	91	3	0	17.1791	33.5077	34.4789
364	91	1	4	17.1791	33.5077	36.3789
365	92	1	4	12.9160	41.4767	4.1577
366	92	3	0	12.9160	41.4767	6.0577
367	92	3	0	12.9160	42.9267	6.5717
368	92	1	4	12.9160	42.9267	8.4717
369	93	1	4	32.1994	17.5597	14.3145
370	93	3	0	32.1994	17.5597	16.2145
371	93	3	0	32.1994	19.0097	16.7285
372	93	1	4	32.1994	19.0097	18.6285
373	94	1	4	31.2958	42.8636	3.1294
374	94	3	0	31.2958	42.8636	5.0294
375	94	3	0	31.2958	44.3136	5.5434
376	94	1	4	31.2958	44.3136	7.4434
377	95	1	4	0.2136	3.7420	36.6451
378	95	3	0	0.2136	3.7420	38.5451
379	95	3	0	0.2136	5.1920	39.0591
380	95	1	4	0.2136	5.1920	40.9591
381	96	1	4	9.8301	18.4989	7.8082
382	96	3	0	9.8301	18.4989	9.7082
383	96	3	0	9.8301	19.9489	10.2222
384	96	1	4	9.8301	19.9489	12.1222
385	97	1	4	1.0894	7.7280	11.1793
386	97	3	0	1.0894	7.7280	13.0793
387	97	3	0	1.0894	9.1780	13.5933
388	97	1	4	1.0894	9.1780	15.4933
389	98	1	4	23.3518	20.2343	39.6921
390	98	3	0	23.3518	20.2343	41.5921
391	98	3	0	23.3518	21.6843	42.1061
392	98	1	4	23.3518	21.6843	44.0061
393	99	1	4	1.0953	12.0054	40.0823
394	99	3	0	1.0953	12.0054	41.9823
395	99	3	0	1.0953	13.4554	42.4963
396	99	1	4	1.0953	13.4554	44.3963
397	100	1	4	8.5883	20.5139	34.2270
398	100	3	0	8.5883	20.5139	36.1270
399	100	3	0	8.5883	21.9639	36.6410
400	100	1	4	8.5883	21.9639	38.5410
401	0	2	-2	17.8410	15.4640	30.5755
402	0	2	-2	8.3458	3.9527	33.8616
403	0	2	-2	5.3607	23.1551	18.7513
404	0	2	-2	4.5294	43.0102	42.8146
405	0	2	-2	16.5333	34.3702	18.4653
406	0	2	-2	39.1799	37.2666	31.7312
407	0	2	-2	21.4025	11.3283	28.7390
408	0	2	-2	41.6721	3.4276	6.4654
409	0	2	-2	6.7092	41.7704	4.5582
410	0	2	-2	15.0691	31.0715	30.4936
411	0	2	-2	9.6765	35.0965	32.7775
412	0	2	-2	31.7746	16.8615	35.7511
413	0	2	-2	16.6329	39.5842	35.6910
414	0	2	-2	0.8153	40.1049	21.5347
415	0	2	-2	37.8745	8.5729	34.1908
416	0	2	-2	12.5315	38.1435	6.7653
417	0	2	-2	28.9426	16.7103	13.8574
418	0	2	-2	28.9635	33.9902	8.3968
419	0	2	-2	13.2277	4.1054	33.0270
420	0	2	-2	15.3574	9.6365	33.4722
421	0	2	-2	4.0021	34.0211	34.8120
422	0	2	-2	19.2783	6.3943	3.9232
423	0	2	-2	13.1619	4.1597	11.6603
424	0	2	-2	20.4614	15.2928	32.6947
425	0	2	-2	16.4930	5.9004	23.7494
426	0	2	-2	29.0509	39.2917	2.7058
427	0	2	-2	20.9690	18.5404	28.9926
428	0	2	-2	24.2842	18.0825	23.7714
429	0	2	-2	20.4824	1.5332	22.1598
430	0	2	-2	41.4661	15.1974	6.5556
431	0	2	-2	8.8616	15.1504	33.6041
432	0	2	-2	1.5170	31.5677	32.6624
433	0	2	-2	20.5318	34.3475	40.0953
434	0	2	-2	6.4139	19.1584	12.4579
435	0	2	-2	29.1681	35.0916	29.9986
436	0	2	-2	8.5939	1.9834	35.4159
437	0	2	-2	36.5282	12.0042	37.9821
438	0	2	-2	7.3164	18.0046	39.7844
439	0	2	-2	6.2104	36.4223	32.2622
440	0	2	-2	25.6900	16.7857	28.4893
441	0	2	-2	35.3671	30.3697	25.6055
442	0	2	-2	2.0700	21.3228	41.9122
443	0	2	-2	37.0363	6.8962	6.6831
444	0	2	-2	7.1661	0.0004	40.1657
445	0	2	-2	34.2010	19.1219	1.9051
446	0	2	-2	43.0122	37.4069	13.5721
447	0	2	-2	17.0070	13.0040	24.1951
448	0	2	-2	12.5328	34.1681	32.3919
449	0	2	-2	32.3259	17.7400	28.0327
450	0	2	-2	23.9198	4.1183	4.1900
451	0	2	-2	23.9741	28.0953	2.4931
452	0	2	-2	31.8107	10.0931	4.1910
453	0	2	-2	29.0623	11.4638	43.0596
454	0	2	-2	14.0284	41.8799	14.8053
455	0	2	-2	0.6799	6.4065	9.4320
456	0	2	-2	5.1230	9.2721	14.0460
457	0	2	-2	6.3295	18.4055	31.7995
458	0	2	-2	0.9847	12.7941	26.1931
459	0	2	-2	9.6539	13.2193	4.3950
460	0	2	-2	15.5717	36.4354	28.0039
461	0	2	-2	23.2674	1.8816	19.3516
462	0	2	-2	22.2748	29.9542	3.6231
463	0	2	-2	24.8791	9.5830	18.2413
464	0	2	-2	27.7789	27.4584	35.7622
465	0	2	-2	1.4612	3.7720	13.5088
466	0	2	-2	18.6389	29.0741	14.4395
467	0	2	-2	26.8488	28.5959	19.8858
468	0	2	-2	11.7698	6.7438	2.0704
469	0	2	-2	22.9287	40.0069	14.2318
470	0	2	-2	34.7663	18.3148	6.1809
471	0	2	-2	24.1022	41.8517	4.3686
472	0	2	-2	32.1866	18.6732	18.0594
473	0	2	-2	13.2894	0.4984	40.3608
474	0	2	-2	41.9736	6.5401	3.5168
475	0	2	-2	18.8258	38.8009	36.7253
476	0	2	-2	7.2817	3.9536	19.9473
477	0	2	-2	27.5599	17.7429	14.9410
478	0	2	-2	37.1665	15.7837	22.8737
479	0	2	-2	7.3475	30.4311	15.2002
480	0	2	-2	12.4682	19.4149	4.7862
481	0	2	-2	29.1859	30.1896	25.5178
482	0	2	-2	24.5842	8.9383	1.7937
483	0	2	-2	10.0939	7.7280	21.3569
484	0	2	-2	14.5127	27.0399	30.9367
485	0	2	-2	30.6182	0.7304	11.6772
486	0	2	-2	41.4114	14.8556	21.8417
487	0	2	-2	26.3224	5.4111	25.4762
488	0	2	-2	24.1006	30.9595	5.0024
489	0	2	-2	29.3796	15.5618	1.1988
490	0	2	-2	0.0857	26.8617	23.4410
491	0	2	-2	24.3133	8.3513	4.5876
492	0	2	-2	39.5019	40.7402	4.7575
493	0	2	-2	42.6626	1.1429	37.1221
494	0	2	-2	16.2737	6.5490	36.9613
495	0	2	-2	15.2812	6.5243	32.4572
496	0	2	-2	32.8061	22.5208	27.9385
497	0	2	-2	31.7103	5.4491	25.5216
498	0	2	-2	39.8838	15.9091	11.3097
499	0	2	-2	29.8875	27.4567	43.0687
500	0	2	-2	4.3021	18.0822	19.2052
501	0	2	-2	41.7842	41.5421	42.3357
502	0	2	-2	2.4526	42.3545	1.2083
503	0	2	-2	13.9255	18.5780	25.0002
504	0	2	-2	29.3980	35.6325	2.0003
505	0	2	-2	0.2981	29.1467	15.1896
506	0	2	-2	22.2778	25.5919	12.0712
507	0	2	-2	16.9161	11.8452	18.1886
508	0	2	-2	14.9128	2.1154	25.8655
509	0	2	-2	16.1199	32.8191	10.8107
510	0	2	-2	34.0282	13.6872	11.9137
511	0	2	-2	37.9288	17.4098	39.9763
512	0	2	-2	34.2351	19.5034	38.3482
513	0	2	-2	38.8420	19.5526	37.1845
514	0	2	-2	24.3794	35.0986	23.5688
515	0	2	-2	12.0490	39.9274	31.3649
516	0	2	-2	37.8478	27.1646	9.1352
517	0	2	-2	41.1153	33.5183	16.8639
518	0	2	-2	30.9287	24.9119	17.4398
519	0	2	-2	19.2342	37.2771	11.1328
520	0	2	-2	13.7954	27.2852	4.9625
521	0	2	-2	7.8427	28.8051	11.8494
522	0	2	-2	27.0741	11.4818	29.5800
523	0	2	-2	12.2024	33.0520	3.2020
524	0	2	-2	24.6534	5.0602	10.5371
525	0	2	-2	8.2331	11.1689	13.8728
526	0	2	-2	11.1922	8.7938	4.5105
527	0	2	-2	16.4413	42.6233	28.2501
528	0	2	-2	13.7487	37.1572	22.0603
529	0	2	-2	32.1231	27.8241	8.3963
530	0	2	-2	20.6539	0.9393	41.2178
531	0	2	-2	2.8573	0.6134	36.4785
532	0	2	-2	26.2160	40.2818	11.8429
533	0	2	-2	34.3096	31.7869	37.0231
534	0	2	-2	39.3948	16.4427	38.0597
535	0	2	-2	5.0577	7.7849	5.3810
536	0	2	-2	8.7313	6.1011	7.8617
537	0	2	-2	32.2222	9.0502	22.9789
538	0	2	-2	22.3898	26.8240	3.4862
539	0	2	-2	4.2529	22.6358	1.8605
540	0	2	-2	13.5860	14.3262	16.6471
541	0	2	-2	1.4534	23.1602	39.9947
542	0	2	-2	26.8166	32.9262	2.0650
543	0	2	-2	22.7886	31.7324	5.3347
544	0	2	-2	3.1966	3.6882	40.8474
545	0	2	-2	12.8423	0.5203	19.3207
546	0	2	-2	31.1965	24.8929	20.8431
547	0	2	-2	29.0290	24.6550	18.6799
548	0	2	-2	22.1605	23.6924	31.2082
549	0	2	-2	28.3254	26.8212	39.7429
550	0	2	-2	25.0458	32.6085	30.3028
551	0	2	-2	42.0904	15.5324	17.9432
552	0	2	-2	29.9537	24.0724	42.6004
553	0	2	-2	37.5682	32.0400	5.9713
554	0	2	-2	7.6508	24.6194	22.6277
555	0	2	-2	11.1742	34.2092	5.3159
556	0	2	-2	2.4917	40.2799	1.7383
557	0	2	-2	19.5216	42.3205	3.8006
558	0	2	-2	5.5933	40.3950	2.4859
559	0	2	-2	9.3223	2.8986	29.3334
560	0	2	-2	17.6808	26.6966	36.4192
561	0	2	-2	19.9027	34.6350	35.3202
562	0	2	-2	24.3580	0.9697	27.3989
563	0	2	-2	5.8987	1.3471	20.4361
564	0	2	-2	13.4451	12.7515	23.0542
565	0	2	-2	35.0831	24.1779	13.3694
566	0	2	-2	31.3400	36.9955	31.8701
567	0	2	-2	37.8936	0.6971	29.8380
568	0	2	-2	18.9174	34.5017	37.3819
569	0	2	-2	14.8208	14.1598	35.4063
570	0	2	-2	25.0159	13.4738	25.3538
571	0	2	-2	0.8887	41.4580	10.4243
572	0	2	-2	4.6939	0.2359	32.1062
573	0	2	-2	40.5443	25.2851	22.6459
574	0	2	-2	30.2053	0.3524	30.7858
575	0	2	-2	0.0529	29.4909	10.5094
576	0	2	-2	3.7285	39.3024	34.8108
577	0	2	-2	42.9621	30.0072	18.6434
578	0	2	-2	4.4278	9.0292	12.6517
579	0	2	-2	19.3563	3.3182	15.7520
580	0	2	-2	35.1539	2.4080	11.6830
581	0	2	-2	31.7466	24.1866	10.2913
582	0	2	-2	30.4056	17.6204	37.1360
583	0	2	-2	6.7833	29.9677	39.4635
584	0	2	-2	13.9597	4.9552	27.8191
585	0	2	-2	21.8012	41.6985	6.4065
586	0	2	-2	38.6009	14.7143	42.8079
587	0	2	-2	12.9910	34.2535	35.9879
588	0	2	-2	3.6472	42.8495	6.8132
589	0	2	-2	33.1839	33.3830	30.7612
590	0	2	-2	4.2585	0.6653	3.1243
591	0	2	-2	18.7405	1.0391	17.1905
592	0	2	-2	36.1126	36.5713	42.7359
593	0	2	-2	26.5985	11.9263	32.8999
594	0	2	-2	29.4065	13.9696	18.9064
595	0	2	-2	18.3924	18.5239	28.4228
596	0	2	-2	20.7587	23.5323	21.6869
597	0	2	-2	11.8202	7.9906	7.4013
598	0	2	-2	11.9428	32.0690	15.8110
599	0	2	-2	14.3416	3.5036	3.5377
600	0	2	-2	11.2937	32.2823	41.0673
601	0	2	-2	5.2407	18.5752	4.2787
602	0	2	-2	16.5888	32.5122	4.7616
603	0	2	-2	12.8881	0.0050	20.4788
604	0	2	-2	21.8231	24.3157	12.2476
605	0	2	-2	24.2034	12.4915	24.4966
606	0	2	-2	7.1487	2.8204	5.5003
607	0	2	-2	37.4913	37.9226	10.0865
608	0	2	-2	40.7206	17.9775	4.8740
609	0	2	-2	7.9303	36.0536	21.0255
610	0	2	-2	34.2713	4.5037	2.9984
611	0	2	-2	13.3565	17.5515	41.8537
612	0	2	-2	14.8510	9.8088	41.0763
613	0	2	-2	17.8771	37.0601	13.1364
614	0	2	-2	40.5828	26.1142	32.2573
615	0	2	-2	16.3912	32.7568	15.3111
616	0	2	-2	24.2804	37.1709	14.6277
617	0	2	-2	20.6278	21.9171	1.3506
618	0	2	-2	3.2649	18.7361	1.9253
619	0	2	-2	31.7375	39.5306	33.3446
620	0	2	-2	33.4783	18.1623	21.5773
621	0	2	-2	27.4295	0.3152	41.9006
622	0	2	-2	19.6323	27.6063	4.9624
623	0	2	-2	41.1153	25.1314	24.1551
624	0	2	-2	39.5392	8.0935	39.9286
625	0	2	-2	41.6330	39.1367	28.0595
626	0	2	-2	2.8246	10.7436	33.9495
627	0	2	-2	16.9455	41.2179	12.1271
628	0	2	-2	2.0267	2.8799	37.7068
629	0	2	-2	42.1741	21.4370	35.1418
630	0	2	-2	0.7429	38.1642	10.7689
631	0	2	-2	12.9458	22.7786	14.4167
632	0	2	-2	18.4121	35.1103	39.4664
633	0	2	-2	40.4938	25.7295	4.4938
634	0	2	-2	17.7294	34.0997	26.2076
635	0	2	-2	13.5529	19.6168	25.9091
636	0	2	-2	11.6367	20.8401	28.3535
637	0	2	-2	6.3973	33.4036	11.8344
638	0	2	-2	4.2477	3.5212	4.2489
639	0	2	-2	22.9297	25.6298	33.1861
640	0	2	-2	6.5513	0.5200	13.0838
641	0	2	-2	8.6036	16.9857	30.1420
642	0	2	-2	34.0373	39.3790	6.6254
643	0	2	-2	22.6734	25.9043	28.6081
644	0	2	-2	11.4175	9.1485	35.8475
645	0	2	-2	29.2470	22.1040	11.0542
646	0	2	-2	21.6527	4.5064	25.4871
647	0	2	-2	35.5891	42.5333	5.2230
648	0	2	-2	10.8468	20.3809	22.7898
649	0	2	-2	26.3560	7.6023	0.0504
650	0	2	-2	9.6475	42.0413	23.5862
651	0	2	-2	23.0679	40.9908	26.1714
652	0	2	-2	38.1745	25.2072	28.2096
653	0	2	-2	16.1524	40.4637	32.2468
654	0	2	-2	26.0755	27.4965	19.8740
655	0	2	-2	33.4587	36.5300	20.5403
656	0	2	-2	40.4837	28.8703	17.7576
657	0	2	-2	14.3605	4.4128	30.8306
658	0	2	-2	14.7315	4.5563	38.1139
659	0	2	-2	30.8338	21.7448	37.4287
660	0	2	-2	33.4202	5.0957	16.0854
661	0	2	-2	16.7558	35.7016	19.7961
662	0	2	-2	37.7407	20.4323	4.3475
663	0	2	-2	4.4607	28.7375	1.9286
664	0	2	-2	11.7463	24.6713	2.2001
665	0	2	-2	13.0695	17.1495	1.4783
666	0	2	-2	33.3550	41.3484	16.8933

Bonds

1	1	1	2
2	2	2	3
3	1	3	4
4	1	5	6
5	2	6	7
6	1	7	8
7	1	9	10
8	2	10	11
9	1	11	12
10	1	13	14
11	2	14	15
12	1	15	16
13	1	17	18
14	2	18	19
15	1	19	20
16	1	21	22
17	2	22	23
18	1	23	24
19	1	25	26
20	2	26	27
21	1	27	28
22	1	29	30
23	2	30	31
24	1	31	32
25	1	33	34
26	2	34	35
27	1	35	36
28	1	37	38
29	2	38	39
30	1	39	40
31	1	41	42
32	2	42	43
33	1	43	44
34	1	45	46
35	2	46	47
36	1	47	48
37	1	49	50
38	2	50	51
39	1	51	52
40	1	53	54
41	2	54	55
42	1	55	56
43	1	57	58
44	2	58	59
45	1	59	60
46	1	61	62
47	2	62	63
48	1	63	64
49	1	65	66
50	2	66	67
51	1	67	68
52	1	69	70
53	2	70	71
54	1	71	72
55	1	73	74
56	2	74	75
57	1	75	76
58	1	77	78
59	2	78	79
60	1	79	80
61	1	81	82
62	2	82	83
63	1	83	84
64	1	85	86
65	2	86	87
66	1	87	88
67	1	89	90
68	2	90	91
69	1	91	92
70	1	93	94
71	2	94	95
72	1	95	96
73	1	97	98
74	2	98	99
75	1	99	100
76	1	101	102
77	2	102	103
78	1	103	104
79	1	105	106
80	2	106	107
81	1	107	108
82	1	109	110
83	2	110	111
84	1	111	112
85	1	113	114
86	2	114	115
87	1	115	116
88	1	117	118
89	2	118	119
90	1	119	120
91	1	121	122
92	2	122	123
93	1	123	124
94	1	125	126
95	2	126	127
96	1	127	128
97	1	129	130
98	2	130	131
99	1	131	132
100	1	133	134
101	2	134	135
102	1	135	136
103	1	137	138
104	2	138	139
105	1	139	140
106	1	141	142
107	2	142	143
108	1	143	144
109	1	145	146
110	2	146	147
111	1	147	148
112	1	149	150
113	2	150	151
114	1	151	152
115	1	153	154
116	2	154	155
117	1	155	156
118	1	157	158
119	2	158	159
120	1	159	160
121	1	161	162
122	2	162	163
123	1	163	164
124	1	165	166
125	2	166	167
126	1	167	168
127	1	169	170
128	2	170	171
129	1	171	172
130	1	173	174
131	2	174	175
132	1	175	176
133	1	177	178
134	2	178	179
135	1	179	180
136	1	181	182
137	2	182	183
138	1	183	184
139	1	185	186
140	2	186	187
141	1	187	188
142	1	189	190
143	2	190	191
144	1	191	192
145	1	193	194
146	2	194	195
147	1	195	196
148	1	197	198
149	2	198	199
150	1	199	200
151	1	201	202
152	2	202	203
153	1	203	204
154	1	205	206
155	2	206	207
156	1	207	208
157	1	209	210
158	2	210	211
159	1	211	212
160	1	213	214
161	2	214	215
162	1	215	216
163	1	217	218
164	2	218	219
165	1	219	220
166	1	221	222
167	2	222	223
168	1	223	224
169	1	225	226
170	2	226	227
171	1	227	228
172	1	229	230
173	2	230	231
174	1	231	232
175	1	233	234
176	2	234	235
177	1	235	236
178	1	237	238
179	2	238	239
180	1	239	240
181	1	241	242
182	2	242	243
183	1	243	244
184	1	245	246
185	2	246	247
186	1	247	248
187	1	249	250
188	2	250	251
189	1	251	252
190	1	253	254
191	2	254	255
192	1	255	256
193	1	257	258
194	2	258	259
195	1	259	260
196	1	261	262
197	2	262	263
198	1	263	264
199	1	265	266
200	2	266	267
201	1	267	268
202	1	269	270
203	2	270	271
204	1	271	272
205	1	273	274
206	2	274	275
207	1	275	276
208	1	277	278
209	2	278	279
210	1	279	280
211	1	281	282
212	2	282	283
213	1	283	284
214	1	285	286
215	2	286	287
216	1	287	288
217	1	289	290
218	2	290	291
219	1	291	292
220	1	293	294
221	2	294	295
222	1	295	296
223	1	297	298
224	2	298	299
225	1	299	300
226	1	301	302
227	2	302	303
228	1	303	304
229	1	305	306
230	2	306	307
231	1	307	308
232	1	309	310
233	2	310	311
234	1	311	312
235	1	313	314
236	2	314	315
237	1	315	316
238	1	317	318
239	2	318	319
240	1	319	320
241	1	321	322
242	2	322	323
243	1	323	324
244	1	325	326
245	2	326	327
246	1	327	328
247	1	329	330
248	2	330	331
249	1	331	332
250	1	333	334
251	2	334	335
252	1	335	336
253	1	337	338
254	2	338	339
255	1	339	340
256	1	341	342
257	2	342	343
258	1	343	344
259	1	345	346
260	2	346	347
261	1	347	348
262	1	349	350
263	2	350	351
264	1	351	352
265	1	353	354
266	2	354	355
267	1	355	356
268	1	357	358
269	2	358	359
270	1	359	360
271	1	361	362
272	2	362	363
273	1	363	364
274	1	365	366
275	2	366	367
276	1	367	368
277	1	369	370
278	2	370	371
279	1	371	372
280	1	373	374
281	2	374	375
282	1	375	376
283	1	377	378
284	2	378	379
285	1	379	380
286	1	381	382
287	2	382	383
288	1	383	384
289	1	385	386
290	2	386	387
291	1	387	388
292	1	389	390
293	2	390	391
294	1	391	392
295	1	393	394
296	2	394	395
297	1	395	396
298	1	397	398
299	2	398	399
300	1	399	400

Angles

1	1	1	2	3
2	1	2	3	4
3	1	5	6	7
4	1	6	7	8
5	1	9	10	11
6	1	10	11	12
7	1	13	14	15
8	1	14	15	16
9	1	17	18	19
10	1	18	19	20
11	1	21	22	23
12	1	22	23	24
13	1	25	26	27
14	1	26	27	28
15	1	29	30	31
16	1	30	31	32
17	1	33	34	35
18	1	34	35	36
19	1	37	38	39
20	1	38	39	40
21	1	41	42	43
22	1	42	43	44
23	1	45	46	47
24	1	46	47	48
25	1	49	50	51
26	1	50	51	52
27	1	53	54	55
28	1	54	55	56
29	1	57	58	59
30	1	58	59	60
31	1	61	62	63
32	1	62	63	64
33	1	65	66	67
34	1	66	67	68
35	1	69	70	71
36	1	70	71	72
37	1	73	74	75
38	1	74	75	76
39	1	77	78	79
40	1	78	79	80
41	1	81	82	83
42	1	82	83	84
43	1	85	86	87
44	1	86	87	88
45	1	89	90	91
46	1	90	91	92
47	1	93	94	95
48	1	94	95	96
49	1	97	98	99
50	1	98	99	100
51	1	101	102	103
52	1	102	103	104
53	1	105	106	107
54	1	106	107	108
55	1	109	110	111
56	1	110	111	112
57	1	113	114	115
58	1	114	115	116
59	1	117	118	119
60	1	118	119	120
61	1	121	122	123
62	1	122	123	124
63	1	125	126	127
64	1	126	127	128
65	1	129	130	131
66	1	130	131	132
67	1	133	134	135
68	1	134	135	136
69	1	137	138	139
70	1	138	139	140
71	1	141	142	143
72	1	142	143	144
73	1	145	146	147
74	1	146	147	148
75	1	149	150	151
76	1	150	151	152
77	1	153	154	155
78	1	154	155	156
79	1	157	158	159
80	1	158	159	160
81	1	161	162	163
82	1	162	163	164
83	1	165	166	167
84	1	166	167	168
85	1	169	170	171
86	1	170	171	172
87	1	173	174	175
88	1	174	175	176
89	1	177	178	179
90	1	178	179	180
91	1	181	182	183
92	1	182	183	184
93	1	185	186	187
94	1	186	187	188
95	1	189	190	191
96	1	190	191	192
97	1	193	194	195
98	1	194	195	196
99	1	197	198	199
100	1	198	199	200
101	1	201	202	203
102	1	202	203	204
103	1	205	206	207
104	1	206	207	208
105	1	209	210	211
106	1	210	211	212
107	1	213	214	215