# data file for 100 EtOCS precursors with porosity capabilities 
-4 53 xlo xhi
-4 53 ylo yhi
-4 53 zlo zhi

800 atoms
300 bonds
200 angles
100 dihedrals

3 atom types
3 bond types
1 angle types
11 dihedral types

Masses

	1	28
	2	16
	3	12

Angle Coeffs

	1	3.38	109.5185

Bond Coeffs

	1	20	1.9000
	2	20	1.5384
	3	20	1.5227

Dihedral Coeffs

	1	opls	0.3750	-0.2000	0.6250	-0.1000
	2	opls	0.0179	-0.0075	0.0613	-0.0025
	3	opls	0.0169	-0.0034	0.0596	-0.0029
	4	opls	0.0061	-0.0064	0.0680	-0.0032
	5	opls	5.1866	-0.7573	0.1955	-0.0484
	6	opls	0.0865	-0.0347	0.1369	0.0009
	7	opls	0.0260	-0.0152	0.0313	-0.0022
	8	class2	0.0035	180.0000	0.0027	180.0000	0.0293	0.0000
	9	class2	0.0000	0.0000	0.0107	180.0000	0.0000	0.0000
	10	class2	5.5263	0.0000	0.0530	-180.0000	-0.4549	0.0000
	11	class2	-0.0021	180.0000	0.0068	-180.0000	0.0249	180.0000

MiddleBondTorsion Coeffs

	1	opls
	2	opls
	3	opls
	4	opls
	5	opls
	6	opls
	7	opls
	8	class2	0	0	0	0
	9	class2	0	0	0	0
	10	class2	0	0	0	0
	11	class2	0	0	0	0

EndBondTorsion Coeffs

	1	opls
	2	opls
	3	opls
	4	opls
	5	opls
	6	opls
	7	opls
	8	class2	0	0	0	0	0	0	0	0
	9	class2	0	0	0	0	0	0	0	0
	10	class2	0	0	0	0	0	0	0	0
	11	class2	0	0	0	0	0	0	0	0

AngleTorsion Coeffs

	1	opls
	2	opls
	3	opls
	4	opls
	5	opls
	6	opls
	7	opls
	8	class2	0	0	0	0	0	0	0	0
	9	class2	0	0	0	0	0	0	0	0
	10	class2	0	0	0	0	0	0	0	0
	11	class2	0	0	0	0	0	0	0	0

AngleAngleTorsion Coeffs

	1	opls
	2	opls
	3	opls
	4	opls
	5	opls
	6	opls
	7	opls
	8	class2	0	0	0
	9	class2	0	0	0
	10	class2	0	0	0
	11	class2	0	0	0

BondBond13 Coeffs

	1	opls
	2	opls
	3	opls
	4	opls
	5	opls
	6	opls
	7	opls
	8	class2	0	0	0
	9	class2	0	0	0
	10	class2	0	0	0
	11	class2	0	0	0

Atoms

1	1	1	4	19.4949	15.0937	36.6920
2	1	3	0	19.4949	15.0937	38.5920
3	1	3	0	19.4949	16.5437	39.1060
4	1	1	4	19.4949	16.5437	41.0060
5	2	1	4	6.9345	44.1568	42.0408
6	2	3	0	6.9345	44.1568	43.9408
7	2	3	0	6.9345	45.6068	44.4548
8	2	1	4	6.9345	45.6068	46.3548
9	3	1	4	4.7899	23.9535	11.9824
10	3	3	0	4.7899	23.9535	13.8824
11	3	3	0	4.7899	25.4035	14.3964
12	3	1	4	4.7899	25.4035	16.2964
13	4	1	4	41.0146	42.6434	28.7046
14	4	3	0	41.0146	42.6434	30.6046
15	4	3	0	41.0146	44.0934	31.1186
16	4	1	4	41.0146	44.0934	33.0186
17	5	1	4	8.8280	37.7961	44.4509
18	5	3	0	8.8280	37.7961	46.3509
19	5	3	0	8.8280	39.2461	46.8649
20	5	1	4	8.8280	39.2461	48.7649
21	6	1	4	43.3734	8.1351	13.6882
22	6	3	0	43.3734	8.1351	15.5882
23	6	3	0	43.3734	9.5851	16.1022
24	6	1	4	43.3734	9.5851	18.0022
25	7	1	4	4.9481	28.0765	5.1898
26	7	3	0	4.9481	28.0765	7.0898
27	7	3	0	4.9481	29.5265	7.6038
28	7	1	4	4.9481	29.5265	9.5038
29	8	1	4	25.7148	30.7282	32.0411
30	8	3	0	25.7148	30.7282	33.9411
31	8	3	0	25.7148	32.1782	34.4551
32	8	1	4	25.7148	32.1782	36.3551
33	9	1	4	32.7780	6.2410	25.0265
34	9	3	0	32.7780	6.2410	26.9265
35	9	3	0	32.7780	7.6910	27.4405
36	9	1	4	32.7780	7.6910	29.3405
37	10	1	4	20.7276	41.7776	38.0508
38	10	3	0	20.7276	41.7776	39.9508
39	10	3	0	20.7276	43.2276	40.4648
40	10	1	4	20.7276	43.2276	42.3648
41	11	1	4	35.3825	36.5684	27.6937
42	11	3	0	35.3825	36.5684	29.5937
43	11	3	0	35.3825	38.0184	30.1077
44	11	1	4	35.3825	38.0184	32.0077
45	12	1	4	11.5354	39.0827	37.8465
46	12	3	0	11.5354	39.0827	39.7465
47	12	3	0	11.5354	40.5327	40.2605
48	12	1	4	11.5354	40.5327	42.1605
49	13	1	4	11.5640	33.5394	3.0073
50	13	3	0	11.5640	33.5394	4.9073
51	13	3	0	11.5640	34.9894	5.4213
52	13	1	4	11.5640	34.9894	7.3213
53	14	1	4	35.0938	25.5061	20.8087
54	14	3	0	35.0938	25.5061	22.7087
55	14	3	0	35.0938	26.9561	23.2227
56	14	1	4	35.0938	26.9561	25.1227
57	15	1	4	1.7906	3.0358	17.8246
58	15	3	0	1.7906	3.0358	19.7246
59	15	3	0	1.7906	4.4858	20.2386
60	15	1	4	1.7906	4.4858	22.1386
61	16	1	4	31.7903	0.9874	18.2565
62	16	3	0	31.7903	0.9874	20.1565
63	16	3	0	31.7903	2.4374	20.6705
64	16	1	4	31.7903	2.4374	22.5705
65	17	1	4	40.2241	9.8749	2.6358
66	17	3	0	40.2241	9.8749	4.5358
67	17	3	0	40.2241	11.3249	5.0498
68	17	1	4	40.2241	11.3249	6.9498
69	18	1	4	14.2894	16.2962	27.6557
70	18	3	0	14.2894	16.2962	29.5557
71	18	3	0	14.2894	17.7462	30.0697
72	18	1	4	14.2894	17.7462	31.9697
73	19	1	4	42.5244	4.5279	19.2076
74	19	3	0	42.5244	4.5279	21.1076
75	19	3	0	42.5244	5.9779	21.6216
76	19	1	4	42.5244	5.9779	23.5216
77	20	1	4	24.6677	19.5257	41.7220
78	20	3	0	24.6677	19.5257	43.6220
79	20	3	0	24.6677	20.9757	44.1360
80	20	1	4	24.6677	20.9757	46.0360
81	21	1	4	25.0818	35.2093	26.1863
82	21	3	0	25.0818	35.2093	28.0863
83	21	3	0	25.0818	36.6593	28.6003
84	21	1	4	25.0818	36.6593	30.5003
85	22	1	4	38.4240	24.7487	33.9169
86	22	3	0	38.4240	24.7487	35.8169
87	22	3	0	38.4240	26.1987	36.3309
88	22	1	4	38.4240	26.1987	38.2309
89	23	1	4	16.0286	34.7732	42.0886
90	23	3	0	16.0286	34.7732	43.9886
91	23	3	0	16.0286	36.2232	44.5026
92	23	1	4	16.0286	36.2232	46.4026
93	24	1	4	15.7383	44.1961	40.6515
94	24	3	0	15.7383	44.1961	42.5515
95	24	3	0	15.7383	45.6461	43.0655
96	24	1	4	15.7383	45.6461	44.9655
97	25	1	4	37.4790	33.3712	30.2339
98	25	3	0	37.4790	33.3712	32.1339
99	25	3	0	37.4790	34.8212	32.6479
100	25	1	4	37.4790	34.8212	34.5479
101	26	1	4	27.8947	23.5340	16.8461
102	26	3	0	27.8947	23.5340	18.7461
103	26	3	0	27.8947	24.9840	19.2601
104	26	1	4	27.8947	24.9840	21.1601
105	27	1	4	18.2777	11.0356	27.8652
106	27	3	0	18.2777	11.0356	29.7652
107	27	3	0	18.2777	12.4856	30.2792
108	27	1	4	18.2777	12.4856	32.1792
109	28	1	4	21.7510	15.9489	6.1561
110	28	3	0	21.7510	15.9489	8.0561
111	28	3	0	21.7510	17.3989	8.5701
112	28	1	4	21.7510	17.3989	10.4701
113	29	1	4	12.0734	19.7828	19.5599
114	29	3	0	12.0734	19.7828	21.4599
115	29	3	0	12.0734	21.2328	21.9739
116	29	1	4	12.0734	21.2328	23.8739
117	30	1	4	14.6192	25.8139	26.9231
118	30	3	0	14.6192	25.8139	28.8231
119	30	3	0	14.6192	27.2639	29.3371
120	30	1	4	14.6192	27.2639	31.2371
121	31	1	4	38.1234	31.3655	8.0166
122	31	3	0	38.1234	31.3655	9.9166
123	31	3	0	38.1234	32.8155	10.4306
124	31	1	4	38.1234	32.8155	12.3306
125	32	1	4	31.1893	38.0869	28.5300
126	32	3	0	31.1893	38.0869	30.4300
127	32	3	0	31.1893	39.5369	30.9440
128	32	1	4	31.1893	39.5369	32.8440
129	33	1	4	12.0484	9.4713	29.2685
130	33	3	0	12.0484	9.4713	31.1685
131	33	3	0	12.0484	10.9213	31.6825
132	33	1	4	12.0484	10.9213	33.5825
133	34	1	4	33.1086	4.1196	19.4463
134	34	3	0	33.1086	4.1196	21.3463
135	34	3	0	33.1086	5.5696	21.8603
136	34	1	4	33.1086	5.5696	23.7603
137	35	1	4	24.4323	6.2319	8.7496
138	35	3	0	24.4323	6.2319	10.6496
139	35	3	0	24.4323	7.6819	11.1636
140	35	1	4	24.4323	7.6819	13.0636
141	36	1	4	40.2619	6.2335	41.1185
142	36	3	0	40.2619	6.2335	43.0185
143	36	3	0	40.2619	7.6835	43.5325
144	36	1	4	40.2619	7.6835	45.4325
145	37	1	4	25.2895	36.0059	27.3042
146	37	3	0	25.2895	36.0059	29.2042
147	37	3	0	25.2895	37.4559	29.7182
148	37	1	4	25.2895	37.4559	31.6182
149	38	1	4	38.6798	33.1802	38.8793
150	38	3	0	38.6798	33.1802	40.7793
151	38	3	0	38.6798	34.6302	41.2933
152	38	1	4	38.6798	34.6302	43.1933
153	39	1	4	0.6668	11.5775	20.5567
154	39	3	0	0.6668	11.5775	22.4567
155	39	3	0	0.6668	13.0275	22.9707
156	39	1	4	0.6668	13.0275	24.8707
157	40	1	4	27.0230	23.8979	44.3211
158	40	3	0	27.0230	23.8979	46.2211
159	40	3	0	27.0230	25.3479	46.7351
160	40	1	4	27.0230	25.3479	48.6351
161	41	1	4	11.5207	8.7911	35.1124
162	41	3	0	11.5207	8.7911	37.0124
163	41	3	0	11.5207	10.2411	37.5264
164	41	1	4	11.5207	10.2411	39.4264
165	42	1	4	0.8704	15.7549	41.2071
166	42	3	0	0.8704	15.7549	43.1071
167	42	3	0	0.8704	17.2049	43.6211
168	42	1	4	0.8704	17.2049	45.5211
169	43	1	4	24.2845	5.0936	36.2438
170	43	3	0	24.2845	5.0936	38.1438
171	43	3	0	24.2845	6.5436	38.6578
172	43	1	4	24.2845	6.5436	40.5578
173	44	1	4	16.9029	16.6047	35.3122
174	44	3	0	16.9029	16.6047	37.2122
175	44	3	0	16.9029	18.0547	37.7262
176	44	1	4	16.9029	18.0547	39.6262
177	45	1	4	8.8589	0.1107	33.1839
178	45	3	0	8.8589	0.1107	35.0839
179	45	3	0	8.8589	1.5607	35.5979
180	45	1	4	8.8589	1.5607	37.4979
181	46	1	4	7.4961	2.0292	20.8333
182	46	3	0	7.4961	2.0292	22.7333
183	46	3	0	7.4961	3.4792	23.2473
184	46	1	4	7.4961	3.4792	25.1473
185	47	1	4	34.1552	10.3119	40.2401
186	47	3	0	34.1552	10.3119	42.1401
187	47	3	0	34.1552	11.7619	42.6541
188	47	1	4	34.1552	11.7619	44.5541
189	48	1	4	21.4028	26.2686	32.5295
190	48	3	0	21.4028	26.2686	34.4295
191	48	3	0	21.4028	27.7186	34.9435
192	48	1	4	21.4028	27.7186	36.8435
193	49	1	4	42.3673	34.0710	30.7176
194	49	3	0	42.3673	34.0710	32.6176
195	49	3	0	42.3673	35.5210	33.1316
196	49	1	4	42.3673	35.5210	35.0316
197	50	1	4	16.6286	10.5574	3.5701
198	50	3	0	16.6286	10.5574	5.4701
199	50	3	0	16.6286	12.0074	5.9841
200	50	1	4	16.6286	12.0074	7.8841
201	51	1	4	36.2635	6.1132	3.7980
202	51	3	0	36.2635	6.1132	5.6980
203	51	3	0	36.2635	7.5632	6.2120
204	51	1	4	36.2635	7.5632	8.1120
205	52	1	4	10.7420	15.7679	27.2619
206	52	3	0	10.7420	15.7679	29.1619
207	52	3	0	10.7420	17.2179	29.6759
208	52	1	4	10.7420	17.2179	31.5759
209	53	1	4	9.3169	19.4119	8.7895
210	53	3	0	9.3169	19.4119	10.6895
211	53	3	0	9.3169	20.8619	11.2035
212	53	1	4	9.3169	20.8619	13.1035
213	54	1	4	45.1212	35.1607	4.5935
214	54	3	0	45.1212	35.1607	6.4935
215	54	3	0	45.1212	36.6107	7.0075
216	54	1	4	45.1212	36.6107	8.9075
217	55	1	4	44.9236	0.0212	26.7905
218	55	3	0	44.9236	0.0212	28.6905
219	55	3	0	44.9236	1.4712	29.2045
220	55	1	4	44.9236	1.4712	31.1045
221	56	1	4	13.3743	14.5117	41.0711
222	56	3	0	13.3743	14.5117	42.9711
223	56	3	0	13.3743	15.9617	43.4851
224	56	1	4	13.3743	15.9617	45.3851
225	57	1	4	22.4379	28.1546	16.8424
226	57	3	0	22.4379	28.1546	18.7424
227	57	3	0	22.4379	29.6046	19.2564
228	57	1	4	22.4379	29.6046	21.1564
229	58	1	4	38.7421	40.5866	28.5134
230	58	3	0	38.7421	40.5866	30.4134
231	58	3	0	38.7421	42.0366	30.9274
232	58	1	4	38.7421	42.0366	32.8274
233	59	1	4	36.0663	20.1399	0.1241
234	59	3	0	36.0663	20.1399	2.0241
235	59	3	0	36.0663	21.5899	2.5381
236	59	1	4	36.0663	21.5899	4.4381
237	60	1	4	41.6417	32.1819	21.0906
238	60	3	0	41.6417	32.1819	22.9906
239	60	3	0	41.6417	33.6319	23.5046
240	60	1	4	41.6417	33.6319	25.4046
241	61	1	4	2.9350	11.5597	12.4195
242	61	3	0	2.9350	11.5597	14.3195
243	61	3	0	2.9350	13.0097	14.8335
244	61	1	4	2.9350	13.0097	16.7335
245	62	1	4	39.0211	32.7069	32.7154
246	62	3	0	39.0211	32.7069	34.6154
247	62	3	0	39.0211	34.1569	35.1294
248	62	1	4	39.0211	34.1569	37.0294
249	63	1	4	29.0433	2.6224	10.2485
250	63	3	0	29.0433	2.6224	12.1485
251	63	3	0	29.0433	4.0724	12.6625
252	63	1	4	29.0433	4.0724	14.5625
253	64	1	4	18.9394	15.3053	36.2558
254	64	3	0	18.9394	15.3053	38.1558
255	64	3	0	18.9394	16.7553	38.6698
256	64	1	4	18.9394	16.7553	40.5698
257	65	1	4	23.7687	30.5775	21.4852
258	65	3	0	23.7687	30.5775	23.3852
259	65	3	0	23.7687	32.0275	23.8992
260	65	1	4	23.7687	32.0275	25.7992
261	66	1	4	37.1293	35.5842	5.2676
262	66	3	0	37.1293	35.5842	7.1676
263	66	3	0	37.1293	37.0342	7.6816
264	66	1	4	37.1293	37.0342	9.5816
265	67	1	4	37.2785	5.6973	30.0522
266	67	3	0	37.2785	5.6973	31.9522
267	67	3	0	37.2785	7.1473	32.4662
268	67	1	4	37.2785	7.1473	34.3662
269	68	1	4	28.6762	26.3507	37.4411
270	68	3	0	28.6762	26.3507	39.3411
271	68	3	0	28.6762	27.8007	39.8551
272	68	1	4	28.6762	27.8007	41.7551
273	69	1	4	45.4207	12.2649	29.2929
274	69	3	0	45.4207	12.2649	31.1929
275	69	3	0	45.4207	13.7149	31.7069
276	69	1	4	45.4207	13.7149	33.6069
277	70	1	4	5.7692	4.1477	14.6947
278	70	3	0	5.7692	4.1477	16.5947
279	70	3	0	5.7692	5.5977	17.1087
280	70	1	4	5.7692	5.5977	19.0087
281	71	1	4	10.6342	15.5119	15.6444
282	71	3	0	10.6342	15.5119	17.5444
283	71	3	0	10.6342	16.9619	18.0584
284	71	1	4	10.6342	16.9619	19.9584
285	72	1	4	8.4684	11.1242	10.8012
286	72	3	0	8.4684	11.1242	12.7012
287	72	3	0	8.4684	12.5742	13.2152
288	72	1	4	8.4684	12.5742	15.1152
289	73	1	4	12.0769	0.9769	38.4465
290	73	3	0	12.0769	0.9769	40.3465
291	73	3	0	12.0769	2.4269	40.8605
292	73	1	4	12.0769	2.4269	42.7605
293	74	1	4	22.2929	43.9977	6.6208
294	74	3	0	22.2929	43.9977	8.5208
295	74	3	0	22.2929	45.4477	9.0348
296	74	1	4	22.2929	45.4477	10.9348
297	75	1	4	43.1963	9.0637	16.7459
298	75	3	0	43.1963	9.0637	18.6459
299	75	3	0	43.1963	10.5137	19.1599
300	75	1	4	43.1963	10.5137	21.0599
301	76	1	4	13.4107	40.3743	1.5364
302	76	3	0	13.4107	40.3743	3.4364
303	76	3	0	13.4107	41.8243	3.9504
304	76	1	4	13.4107	41.8243	5.8504
305	77	1	4	15.9680	5.0201	21.7466
306	77	3	0	15.9680	5.0201	23.6466
307	77	3	0	15.9680	6.4701	24.1606
308	77	1	4	15.9680	6.4701	26.0606
309	78	1	4	2.6547	17.2139	30.3252
310	78	3	0	2.6547	17.2139	32.2252
311	78	3	0	2.6547	18.6639	32.7392
312	78	1	4	2.6547	18.6639	34.6392
313	79	1	4	21.2458	14.0509	42.7968
314	79	3	0	21.2458	14.0509	44.6968
315	79	3	0	21.2458	15.5009	45.2108
316	79	1	4	21.2458	15.5009	47.1108
317	80	1	4	34.5587	36.3009	39.3823
318	80	3	0	34.5587	36.3009	41.2823
319	80	3	0	34.5587	37.7509	41.7963
320	80	1	4	34.5587	37.7509	43.6963
321	81	1	4	18.4563	3.9733	29.5560
322	81	3	0	18.4563	3.9733	31.4560
323	81	3	0	18.4563	5.4233	31.9700
324	81	1	4	18.4563	5.4233	33.8700
325	82	1	4	12.2613	18.1631	38.0879
326	82	3	0	12.2613	18.1631	39.9879
327	82	3	0	12.2613	19.6131	40.5019
328	82	1	4	12.2613	19.6131	42.4019
329	83	1	4	24.0221	4.4572	30.3227
330	83	3	0	24.0221	4.4572	32.2227
331	83	3	0	24.0221	5.9072	32.7367
332	83	1	4	24.0221	5.9072	34.6367
333	84	1	4	43.0949	29.3231	14.3091
334	84	3	0	43.0949	29.3231	16.2091
335	84	3	0	43.0949	30.7731	16.7231
336	84	1	4	43.0949	30.7731	18.6231
337	85	1	4	9.1187	36.3970	28.7187
338	85	3	0	9.1187	36.3970	30.6187
339	85	3	0	9.1187	37.8470	31.1327
340	85	1	4	9.1187	37.8470	33.0327
341	86	1	4	36.3670	10.7810	26.8650
342	86	3	0	36.3670	10.7810	28.7650
343	86	3	0	36.3670	12.2310	29.2790
344	86	1	4	36.3670	12.2310	31.1790
345	87	1	4	8.4972	42.8397	15.5724
346	87	3	0	8.4972	42.8397	17.4724
347	87	3	0	8.4972	44.2897	17.9864
348	87	1	4	8.4972	44.2897	19.8864
349	88	1	4	11.8677	33.6719	40.6508
350	88	3	0	11.8677	33.6719	42.5508
351	88	3	0	11.8677	35.1219	43.0648
352	88	1	4	11.8677	35.1219	44.9648
353	89	1	4	11.8652	43.4023	16.5396
354	89	3	0	11.8652	43.4023	18.4396
355	89	3	0	11.8652	44.8523	18.9536
356	89	1	4	11.8652	44.8523	20.8536
357	90	1	4	40.6542	20.5862	18.0430
358	90	3	0	40.6542	20.5862	19.9430
359	90	3	0	40.6542	22.0362	20.4570
360	90	1	4	40.6542	22.0362	22.3570
361	91	1	4	14.0369	13.7287	9.2657
362	91	3	0	14.0369	13.7287	11.1657
363	91	3	0	14.0369	15.1787	11.6797
364	91	1	4	14.0369	15.1787	13.5797
365	92	1	4	35.3247	12.3120	2.1884
366	92	3	0	35.3247	12.3120	4.0884
367	92	3	0	35.3247	13.7620	4.6024
368	92	1	4	35.3247	13.7620	6.5024
369	93	1	4	16.5912	15.2336	18.8109
370	93	3	0	16.5912	15.2336	20.7109
371	93	3	0	16.5912	16.6836	21.2249
372	93	1	4	16.5912	16.6836	23.1249
373	94	1	4	6.6012	45.7280	0.8749
374	94	3	0	6.6012	45.7280	2.7749
375	94	3	0	6.6012	47.1780	3.2889
376	94	1	4	6.6012	47.1780	5.1889
377	95	1	4	45.6577	30.5631	18.7920
378	95	3	0	45.6577	30.5631	20.6920
379	95	3	0	45.6577	32.0131	21.2060
380	95	1	4	45.6577	32.0131	23.1060
381	96	1	4	44.7406	35.2905	26.8403
382	96	3	0	44.7406	35.2905	28.7403
383	96	3	0	44.7406	36.7405	29.2543
384	96	1	4	44.7406	36.7405	31.1543
385	97	1	4	20.1090	43.3798	16.2752
386	97	3	0	20.1090	43.3798	18.1752
387	97	3	0	20.1090	44.8298	18.6892
388	97	1	4	20.1090	44.8298	20.5892
389	98	1	4	33.4903	27.5842	3.1311
390	98	3	0	33.4903	27.5842	5.0311
391	98	3	0	33.4903	29.0342	5.5451
392	98	1	4	33.4903	29.0342	7.4451
393	99	1	4	30.6780	29.5190	2.6303
394	99	3	0	30.6780	29.5190	4.5303
395	99	3	0	30.6780	30.9690	5.0443
396	99	1	4	30.6780	30.9690	6.9443
397	100	1	4	3.6540	6.0927	33.5035
398	100	3	0	3.6540	6.0927	35.4035
399	100	3	0	3.6540	7.5427	35.9175
400	100	1	4	3.6540	7.5427	37.8175
401	0	2	-2	8.3898	13.9263	32.4656
402	0	2	-2	35.6863	13.3866	18.3222
403	0	2	-2	40.0659	39.4393	25.2385
404	0	2	-2	41.0905	7.4248	36.8845
405	0	2	-2	11.6815	6.3944	16.9253
406	0	2	-2	36.1478	45.6084	26.2820
407	0	2	-2	4.7216	4.6380	11.7526
408	0	2	-2	2.6289	9.1653	2.6810
409	0	2	-2	43.4834	18.5297	2.3634
410	0	2	-2	38.0996	21.9867	1.5560
411	0	2	-2	2.9660	28.9658	19.2669
412	0	2	-2	42.1393	11.9376	21.8764
413	0	2	-2	1.8732	27.7863	9.7632
414	0	2	-2	44.6701	8.3830	13.5093
415	0	2	-2	35.9957	43.4990	34.7841
416	0	2	-2	25.4838	41.4810	19.4880
417	0	2	-2	25.9111	18.5376	5.9118
418	0	2	-2	37.4150	2.4196	23.0359
419	0	2	-2	16.7235	11.8646	5.5940
420	0	2	-2	1.1856	20.2921	36.5878
421	0	2	-2	4.6193	28.5303	35.1306
422	0	2	-2	5.0842	43.3993	9.2789
423	0	2	-2	38.8291	7.9538	6.7994
424	0	2	-2	6.0696	22.1050	44.1633
425	0	2	-2	18.0706	3.5128	44.2320
426	0	2	-2	10.4464	5.2439	41.9321
427	0	2	-2	40.5899	32.3907	17.0381
428	0	2	-2	10.1500	18.7572	15.1452
429	0	2	-2	44.6309	2.4597	16.5751
430	0	2	-2	20.6344	28.8998	37.6885
431	0	2	-2	12.2495	27.3338	41.0728
432	0	2	-2	2.3446	27.4209	18.7624
433	0	2	-2	33.0099	14.8995	33.1400
434	0	2	-2	21.6455	31.1045	22.2495
435	0	2	-2	6.4840	16.9222	34.6856
436	0	2	-2	5.4911	16.3877	42.7790
437	0	2	-2	33.4893	17.6652	18.8884
438	0	2	-2	20.2419	28.6814	45.2172
439	0	2	-2	34.7629	23.4404	1.4673
440	0	2	-2	2.4442	40.7990	26.3562
441	0	2	-2	3.2370	23.6434	16.7110
442	0	2	-2	44.6954	12.4819	42.2475
443	0	2	-2	21.8315	12.6180	34.1697
444	0	2	-2	22.6938	41.3747	29.4745
445	0	2	-2	44.8677	13.7476	37.4846
446	0	2	-2	39.9794	19.3162	23.5866
447	0	2	-2	44.7078	27.1166	16.3482
448	0	2	-2	25.7295	38.0248	32.5336
449	0	2	-2	9.2409	3.4875	11.7407
450	0	2	-2	2.5192	13.8792	43.7163
451	0	2	-2	17.3875	25.3910	0.5474
452	0	2	-2	5.6736	0.3575	25.8159
453	0	2	-2	14.4848	0.9689	17.7298
454	0	2	-2	16.0343	37.4502	21.8499
455	0	2	-2	21.1181	45.2577	32.5146
456	0	2	-2	42.6578	5.5807	9.2526
457	0	2	-2	0.8929	45.4426	42.3504
458	0	2	-2	24.5911	1.8967	14.4353
459	0	2	-2	25.3515	31.5245	7.9925
460	0	2	-2	15.0171	17.4259	21.5996
461	0	2	-2	44.8518	12.7164	1.7482
462	0	2	-2	19.0018	23.0588	26.9516
463	0	2	-2	34.5901	21.8292	28.3949
464	0	2	-2	30.6277	44.8019	25.2645
465	0	2	-2	14.8087	0.6180	41.1076
466	0	2	-2	10.5510	27.4107	34.0227
467	0	2	-2	41.7473	40.9931	21.6102
468	0	2	-2	37.3667	42.7180	4.2861
469	0	2	-2	29.0200	6.4144	5.3572
470	0	2	-2	3.7929	9.6898	4.1433
471	0	2	-2	3.0863	44.1542	2.4130
472	0	2	-2	4.0227	12.0689	34.7815
473	0	2	-2	17.1312	27.7312	1.8623
474	0	2	-2	10.6630	42.5957	13.9102
475	0	2	-2	38.4243	40.5178	42.7709
476	0	2	-2	16.9187	37.1535	15.9013
477	0	2	-2	1.4786	35.1322	8.8931
478	0	2	-2	2.5343	30.6512	18.4252
479	0	2	-2	30.7306	0.6940	17.3524
480	0	2	-2	44.2958	26.9075	41.8157
481	0	2	-2	20.4128	41.5170	3.3891
482	0	2	-2	17.3471	40.0470	36.5124
483	0	2	-2	11.8662	10.8101	23.5690
484	0	2	-2	24.9912	13.7569	9.2769
485	0	2	-2	29.3838	28.1482	43.2616
486	0	2	-2	13.0065	13.9037	2.1755
487	0	2	-2	36.5763	5.0391	0.3945
488	0	2	-2	42.4217	35.1984	27.8403
489	0	2	-2	11.8643	6.2326	33.1494
490	0	2	-2	43.3570	44.8731	32.1812
491	0	2	-2	21.4855	26.7953	16.2915
492	0	2	-2	41.5235	30.8712	20.2060
493	0	2	-2	42.3112	35.0909	3.4514
494	0	2	-2	39.4280	28.9670	44.6909
495	0	2	-2	17.6460	22.1168	24.2126
496	0	2	-2	0.4962	10.1536	22.8182
497	0	2	-2	35.8559	0.4310	33.7192
498	0	2	-2	17.7984	41.0306	7.5229
499	0	2	-2	22.2394	36.0684	15.9039
500	0	2	-2	17.0858	23.4269	33.8899
501	0	2	-2	15.5437	21.7360	0.4132
502	0	2	-2	7.7267	31.2400	3.0302
503	0	2	-2	17.8167	32.1447	5.8729
504	0	2	-2	27.7791	3.3603	17.5281
505	0	2	-2	0.0007	38.4444	42.2845
506	0	2	-2	25.1350	2.6979	6.0199
507	0	2	-2	7.4991	21.1376	26.1406
508	0	2	-2	34.7638	37.3875	0.8322
509	0	2	-2	12.2134	8.8250	11.3568
510	0	2	-2	44.6439	33.5767	30.9169
511	0	2	-2	18.4332	3.9880	35.7824
512	0	2	-2	9.9027	9.7321	17.7409
513	0	2	-2	2.6985	1.5271	33.6999
514	0	2	-2	40.6769	42.4376	31.5910
515	0	2	-2	12.6431	3.8965	11.2321
516	0	2	-2	8.3355	28.9143	34.0892
517	0	2	-2	34.6606	22.2484	11.1981
518	0	2	-2	27.3028	4.0782	42.7257
519	0	2	-2	22.6622	5.7030	12.0915
520	0	2	-2	8.3233	13.2296	34.7706
521	0	2	-2	41.0215	23.5612	39.4211
522	0	2	-2	14.5362	5.5670	7.0905
523	0	2	-2	41.8115	12.5682	6.4327
524	0	2	-2	20.1147	11.5269	8.0597
525	0	2	-2	18.0089	35.2844	7.8214
526	0	2	-2	15.0042	20.4367	30.3960
527	0	2	-2	1.6712	26.3582	38.7356
528	0	2	-2	20.2894	19.4201	1.3331
529	0	2	-2	1.5606	38.5908	38.8579
530	0	2	-2	20.3679	26.5484	16.4810
531	0	2	-2	15.5548	9.6091	23.1185
532	0	2	-2	45.5003	31.5495	36.5143
533	0	2	-2	10.5862	27.5648	4.3045
534	0	2	-2	38.3896	44.9442	2.5274
535	0	2	-2	1.6157	25.2256	35.5797
536	0	2	-2	22.8998	42.7902	15.1311
537	0	2	-2	14.1717	5.5357	2.7276
538	0	2	-2	5.8821	37.1099	11.0646
539	0	2	-2	10.1032	9.1910	6.1205
540	0	2	-2	19.7793	16.4593	14.1274
541	0	2	-2	29.2752	10.5710	3.7305
542	0	2	-2	2.6629	25.5361	23.8901
543	0	2	-2	16.3405	40.6621	40.5033
544	0	2	-2	40.2379	40.8758	32.8594
545	0	2	-2	43.5227	10.6787	35.0262
546	0	2	-2	39.7829	44.8493	11.4776
547	0	2	-2	20.1660	41.5473	23.6537
548	0	2	-2	35.5018	33.2876	29.7700
549	0	2	-2	14.1297	17.0627	15.5187
550	0	2	-2	25.0195	33.0582	30.2790
551	0	2	-2	7.7747	8.4136	4.8252
552	0	2	-2	23.5475	23.5785	6.0699
553	0	2	-2	25.4576	43.1292	11.2840
554	0	2	-2	37.8157	20.6318	19.6291
555	0	2	-2	27.2150	1.1963	42.3064
556	0	2	-2	33.9262	13.5473	6.9924
557	0	2	-2	14.7501	26.9470	13.9117
558	0	2	-2	45.4516	30.3179	9.4791
559	0	2	-2	12.4249	25.3499	37.8006
560	0	2	-2	35.9769	12.3569	2.6186
561	0	2	-2	10.7649	12.8343	45.1456
562	0	2	-2	10.2773	16.7061	45.2111
563	0	2	-2	12.7334	21.9155	8.0549
564	0	2	-2	2.6287	26.5029	11.3925
565	0	2	-2	10.3370	32.6045	38.9669
566	0	2	-2	0.9872	4.8881	24.1463
567	0	2	-2	33.1218	28.1168	23.3279
568	0	2	-2	42.1020	31.4284	43.5962
569	0	2	-2	9.9867	21.7084	33.7815
570	0	2	-2	10.6337	42.1447	29.3241
571	0	2	-2	11.0977	34.0179	25.8363
572	0	2	-2	25.5155	39.8553	42.6095
573	0	2	-2	15.9893	29.8090	21.7309
574	0	2	-2	13.4796	1.1800	9.3309
575	0	2	-2	21.8014	35.5286	7.2157
576	0	2	-2	1.4276	3.8714	4.3417
577	0	2	-2	37.1398	11.9086	9.3840
578	0	2	-2	19.4603	30.0157	9.4603
579	0	2	-2	3.5757	30.3417	30.8263
580	0	2	-2	29.6383	28.9554	1.3288
581	0	2	-2	33.4249	44.1322	11.4017
582	0	2	-2	16.6673	44.8780	12.8356
583	0	2	-2	4.2457	42.5633	28.4924
584	0	2	-2	13.6004	18.2451	14.0347
585	0	2	-2	38.3871	44.0346	34.5510
586	0	2	-2	27.0906	18.4209	31.3257
587	0	2	-2	44.9318	39.5475	36.9184
588	0	2	-2	45.4968	15.9904	35.4102
589	0	2	-2	6.4962	44.3718	32.3990
590	0	2	-2	19.2861	37.4169	8.0013
591	0	2	-2	15.6542	26.9423	4.6349
592	0	2	-2	7.5184	4.0754	12.5623
593	0	2	-2	24.0767	8.5741	32.9064
594	0	2	-2	21.4702	33.7461	2.7786
595	0	2	-2	5.6269	43.5920	44.2232
596	0	2	-2	18.5337	44.4062	45.3504
597	0	2	-2	22.5776	17.1279	34.9585
598	0	2	-2	20.2902	23.4227	28.0213
599	0	2	-2	28.4100	40.8354	3.7495
600	0	2	-2	7.4551	21.9662	0.9251
601	0	2	-2	5.6954	4.6082	33.2034
602	0	2	-2	37.1647	1.5331	27.8839
603	0	2	-2	30.7846	27.3520	11.9160
604	0	2	-2	12.3504	14.1336	41.9987
605	0	2	-2	25.9760	12.0043	14.5284
606	0	2	-2	44.0078	33.2310	18.8465
607	0	2	-2	3.2690	8.2723	42.0843
608	0	2	-2	17.2111	11.6763	36.7740
609	0	2	-2	41.1849	9.6479	44.0072
610	0	2	-2	44.3626	43.5638	43.4721
611	0	2	-2	18.1728	5.6998	21.3029
612	0	2	-2	20.7419	17.9745	39.0792
613	0	2	-2	10.4858	15.5462	33.1696
614	0	2	-2	24.6648	16.9872	17.2911
615	0	2	-2	12.0304	6.5000	29.1161
616	0	2	-2	1.4669	38.9686	0.4001
617	0	2	-2	6.4098	10.4961	35.9531
618	0	2	-2	44.3421	41.8835	37.6592
619	0	2	-2	1.3896	7.4630	27.3327
620	0	2	-2	38.4779	34.6208	19.6771
621	0	2	-2	22.7136	36.6346	37.0227
622	0	2	-2	3.5507	7.7699	15.1924
623	0	2	-2	45.5326	6.6786	8.3951
624	0	2	-2	12.6090	19.6514	27.9612
625	0	2	-2	31.0241	41.5030	22.6504
626	0	2	-2	35.5715	28.8810	36.8830
627	0	2	-2	35.9152	26.6067	3.5999
628	0	2	-2	32.0019	14.8563	29.0899
629	0	2	-2	9.8015	44.1403	16.2752
630	0	2	-2	12.5064	31.5839	39.4189
631	0	2	-2	42.9244	35.7354	1.3941
632	0	2	-2	41.5956	31.9146	27.6234
633	0	2	-2	14.6219	39.1400	23.5864
634	0	2	-2	35.3017	0.8335	8.2938
635	0	2	-2	44.5884	6.7862	7.9083
636	0	2	-2	15.2798	44.8989	6.7378
637	0	2	-2	16.1802	45.3706	19.3931
638	0	2	-2	44.2547	16.9806	35.6954
639	0	2	-2	34.3239	39.0494	34.6385
640	0	2	-2	37.7886	20.2731	36.4587
641	0	2	-2	16.9363	45.3658	12.8273
642	0	2	-2	35.2120	8.8438	5.9082
643	0	2	-2	21.8352	3.6957	12.1075
644	0	2	-2	37.0357	44.8709	14.7178
645	0	2	-2	24.5736	14.6654	39.1712
646	0	2	-2	2.3454	39.3182	36.5426
647	0	2	-2	7.2791	35.8428	20.2713
648	0	2	-2	7.2698	10.8823	22.3196
649	0	2	-2	28.6922	7.4882	2.6181
650	0	2	-2	35.4132	14.3533	40.3387
651	0	2	-2	25.5470	37.4199	33.7584
652	0	2	-2	15.7462	41.6914	22.7318
653	0	2	-2	27.1158	9.2754	43.2831
654	0	2	-2	20.9987	5.9522	15.0252
655	0	2	-2	13.7553	39.3875	21.8046
656	0	2	-2	16.4946	31.5592	21.5036
657	0	2	-2	9.4764	17.7816	44.2144
658	0	2	-2	14.9917	30.7448	13.1418
659	0	2	-2	3.9631	41.0033	31.4590
660	0	2	-2	36.7024	26.9884	6.0101
661	0	2	-2	41.2003	45.6869	37.7837
662	0	2	-2	25.6975	16.8742	30.2575
663	0	2	-2	43.4994	6.3736	0.3703
664	0	2	-2	3.3525	2.1138	30.0958
665	0	2	-2	40.0048	44.2350	39.2823
666	0	2	-2	13.1304	8.4028	8.1354
667	0	2	-2	44.7867	12.4130	0.3082
668	0	2	-2	2.5554	4.4869	38.4837
669	0	2	-2	17.0206	8.0299	30.1582
670	0	2	-2	43.9011	25.6712	32.3774
671	0	2	-2	42.6058	41.6333	32.9326
672	0	2	-2	14.6313	22.0258	32.9901
673	0	2	-2	2.2861	28.2286	25.0148
674	0	2	-2	25.5339	35.4665	31.1727
675	0	2	-2	9.4523	42.9798	14.5300
676	0	2	-2	44.2323	20.6225	2.7819
677	0	2	-2	3.8061	32.5930	26.2168
678	0	2	-2	13.2685	27.6631	37.5625
679	0	2	-2	35.5525	25.4925	6.0427
680	0	2	-2	40.9037	24.6695	31.3058
681	0	2	-2	2.1940	38.7054	7.4065
682	0	2	-2	37.2032	36.3499	18.4317
683	0	2	-2	45.3701	19.6705	3.9928
684	0	2	-2	32.8712	9.3780	41.1199
685	0	2	-2	34.8918	13.5563	15.1084
686	0	2	-2	16.3287	17.7943	28.0764
687	0	2	-2	40.0317	34.9715	6.7140
688	0	2	-2	25.3175	35.5689	15.0956
689	0	2	-2	33.6078	16.0469	20.7706
690	0	2	-2	3.4755	9.1508	17.7586
691	0	2	-2	8.2699	43.7649	33.5278
692	0	2	-2	41.8951	24.1789	9.4676
693	0	2	-2	24.0725	23.5478	5.5604
694	0	2	-2	25.5103	38.1895	35.5141
695	0	2	-2	43.0423	13.5855	40.1684
696	0	2	-2	32.5989	13.7564	17.4935
697	0	2	-2	14.1608	28.2829	6.5530
698	0	2	-2	22.5413	15.8489	28.7917
699	0	2	-2	27.0679	25.3634	11.6753
700	0	2	-2	17.2347	32.0152	31.1071
701	0	2	-2	17.1046	18.1005	28.8520
702	0	2	-2	0.9037	14.1131	13.7894
703	0	2	-2	45.4587	26.4753	6.3744
704	0	2	-2	14.0461	40.0503	25.5970
705	0	2	-2	21.2239	32.3031	40.9304
706	0	2	-2	16.8980	6.9810	20.4957
707	0	2	-2	3.3143	14.6954	8.5425
708	0	2	-2	28.3461	18.7629	37.3661
709	0	2	-2	4.6329	34.6065	31.4525
710	0	2	-2	0.6635	1.8726	17.4628
711	0	2	-2	1.2097	35.0940	6.8746
712	0	2	-2	12.6952	23.6974	15.4120
713	0	2	-2	2.7163	30.9113	3.5608
714	0	2	-2	26.3042	41.8054	24.7873
715	0	2	-2	35.8399	33.0441	7.8026
716	0	2	-2	37.6232	19.0448	6.6959
717	0	2	-2	42.2036	42.4716	41.3410
718	0	2	-2	31.5516	10.7639	16.6186
719	0	2	-2	32.0011	13.1730	30.3948
720	0	2	-2	24.5755	24.0686	1.6360
721	0	2	-2	31.3083	28.0795	1.2861
722	0	2	-2	38.2945	35.0892	34.5046
723	0	2	-2	20.6125	26.2976	3.9460
724	0	2	-2	0.2200	26.6104	15.6060
725	0	2	-2	25.2971	39.5429	30.7715
726	0	2	-2	44.7925	7.9671	39.2001
727	0	2	-2	32.0952	23.5212	9.0328
728	0	2	-2	27.8997	0.9912	1.0565
729	0	2	-2	9.6769	43.1204	7.8452
730	0	2	-2	32.1154	26.1048	15.7617
731	0	2	-2	41.2767	43.8511	25.8225
732	0	2	-2	35.9374	12.9094	1.0965
733	0	2	-2	2.8902	0.7404	26.9544
734	0	2	-2	5.3628	40.2575	0.0098
735	0	2	-2	24.1870	36.7134	6.2973
736	0	2	-2	18.5106	9.9713	11.2693
737	0	2	-2	9.4969	25.9764	34.4374
738	0	2	-2	43.4001	16.9739	31.8348
739	0	2	-2	0.5945	27.7026	38.1053
740	0	2	-2	31.5190	0.9160	40.2934
741	0	2	-2	29.9730	24.0199	34.7113
742	0	2	-2	18.1041	44.6699	22.5671
743	0	2	-2	18.1128	38.3610	27.3248
744	0	2	-2	14.1527	30.7808	26.1031
745	0	2	-2	17.9460	45.3765	29.4013
746	0	2	-2	4.3599	41.9252	28.2382
747	0	2	-2	17.0053	27.4117	24.3354
748	0	2	-2	22.5693	16.6510	42.9324
749	0	2	-2	39.8482	3.7614	2.4186
750	0	2	-2	42.7198	39.1490	44.3245
751	0	2	-2	44.9399	1.3866	13.7283
752	0	2	-2	12.7367	43.6011	43.1047
753	0	2	-2	0.7415	25.2910	14.4994
754	0	2	-2	9.0842	8.0890	26.2174
755	0	2	-2	25.7504	21.5749	16.9525
756	0	2	-2	20.8704	23.3664	1.7498
757	0	2	-2	34.3560	11.1357	35.2232
758	0	2	-2	6.0488	15.8837	32.0443
759	0	2	-2	16.0110	43.1715	13.9426
760	0	2	-2	7.1098	9.8549	36.1124
761	0	2	-2	21.0249	43.3356	32.7905
762	0	2	-2	33.8000	40.8886	14.8921
763	0	2	-2	15.2337	9.4549	14.0129
764	0	2	-2	19.4768	19.1009	27.9027
765	0	2	-2	40.8294	19.2202	10.2239
766	0	2	-2	36.8037	27.2113	4.2264
767	0	2	-2	3.6696	18.1868	0.2328
768	0	2	-2	40.9374	9.1673	13.4966
769	0	2	-2	0.6558	29.6185	21.2408
770	0	2	-2	2.9558	26.5608	19.5367
771	0	2	-2	24.2530	7.5481	28.4531
772	0	2	-2	24.5983	40.8818	25.7514
773	0	2	-2	24.6103	0.0693	23.3787
774	0	2	-2	41.3628	22.0101	19.2453
775	0	2	-2	13.4392	42.2009	26.9671
776	0	2	-2	28.8253	17.5380	38.3530
777	0	2	-2	36.9965	32.9384	4.3402
778	0	2	-2	27.9677	5.5079	27.6997
779	0	2	-2	3.9514	8.7032	37.3710
780	0	2	-2	44.0618	19.6854	5.4270
781	0	2	-2	2.0496	14.9222	14.4887
782	0	2	-2	31.9726	37.0643	15.9009
783	0	2	-2	13.2023	37.1496	30.6935
784	0	2	-2	22.5624	11.5174	10.1615
785	0	2	-2	13.2600	1.6818	29.2511
786	0	2	-2	40.1528	3.4397	11.7183
787	0	2	-2	30.7151	41.2499	15.2950
788	0	2	-2	30.5139	12.2137	17.5112
789	0	2	-2	6.2724	33.6543	1.6605
790	0	2	-2	3.7558	2.5226	26.2193
791	0	2	-2	36.7802	11.6071	19.3918
792	0	2	-2	9.2676	33.4467	13.0988
793	0	2	-2	30.5455	0.0507	32.8936
794	0	2	-2	4.3747	27.8351	24.7587
795	0	2	-2	10.0181	40.2859	35.3988
796	0	2	-2	10.3118	14.2519	35.3986
797	0	2	-2	21.7122	45.1112	29.4773
798	0	2	-2	37.2791	19.5933	12.5346
799	0	2	-2	10.9973	4.4617	14.1945
800	0	2	-2	17.5361	20.2625	23.9359

Bonds

1	1	1	2
2	2	2	3
3	1	3	4
4	1	5	6
5	2	6	7
6	1	7	8
7	1	9	10
8	2	10	11
9	1	11	12
10	1	13	14
11	2	14	15
12	1	15	16
13	1	17	18
14	2	18	19
15	1	19	20
16	1	21	22
17	2	22	23
18	1	23	24
19	1	25	26
20	2	26	27
21	1	27	28
22	1	29	30
23	2	30	31
24	1	31	32
25	1	33	34
26	2	34	35
27	1	35	36
28	1	37	38
29	2	38	39
30	1	39	40
31	1	41	42
32	2	42	43
33	1	43	44
34	1	45	46
35	2	46	47
36	1	47	48
37	1	49	50
38	2	50	51
39	1	51	52
40	1	53	54
41	2	54	55
42	1	55	56
43	1	57	58
44	2	58	59
45	1	59	60
46	1	61	62
47	2	62	63
48	1	63	64
49	1	65	66
50	2	66	67
51	1	67	68
52	1	69	70
53	2	70	71
54	1	71	72
55	1	73	74
56	2	74	75
57	1	75	76
58	1	77	78
59	2	78	79
60	1	79	80
61	1	81	82
62	2	82	83
63	1	83	84
64	1	85	86
65	2	86	87
66	1	87	88
67	1	89	90
68	2	90	91
69	1	91	92
70	1	93	94
71	2	94	95
72	1	95	96
73	1	97	98
74	2	98	99
75	1	99	100
76	1	101	102
77	2	102	103
78	1	103	104
79	1	105	106
80	2	106	107
81	1	107	108
82	1	109	110
83	2	110	111
84	1	111	112
85	1	113	114
86	2	114	115
87	1	115	116
88	1	117	118