# data file for 100 EtOCS precursors with porosity capabilities 
-4 53 xlo xhi
-4 53 ylo yhi
-4 53 zlo zhi

733 atoms
300 bonds
200 angles
100 dihedrals

3 atom types
3 bond types
1 angle types
11 dihedral types

Masses

	1	28
	2	16
	3	12

Angle Coeffs

	1	3.38	109.5185

Bond Coeffs

	1	20	1.9000
	2	20	1.5384
	3	20	1.5227

Dihedral Coeffs

	1	opls	0.3750	-0.2000	0.6250	-0.1000
	2	opls	0.0179	-0.0075	0.0613	-0.0025
	3	opls	0.0169	-0.0034	0.0596	-0.0029
	4	opls	0.0061	-0.0064	0.0680	-0.0032
	5	opls	5.1866	-0.7573	0.1955	-0.0484
	6	opls	0.0865	-0.0347	0.1369	0.0009
	7	opls	0.0260	-0.0152	0.0313	-0.0022
	8	class2	0.0035	180.0000	0.0027	180.0000	0.0293	0.0000
	9	class2	0.0000	0.0000	0.0107	180.0000	0.0000	0.0000
	10	class2	5.5263	0.0000	0.0530	-180.0000	-0.4549	0.0000
	11	class2	-0.0021	180.0000	0.0068	-180.0000	0.0249	180.0000

MiddleBondTorsion Coeffs

	1	opls
	2	opls
	3	opls
	4	opls
	5	opls
	6	opls
	7	opls
	8	class2	0	0	0	0
	9	class2	0	0	0	0
	10	class2	0	0	0	0
	11	class2	0	0	0	0

EndBondTorsion Coeffs

	1	opls
	2	opls
	3	opls
	4	opls
	5	opls
	6	opls
	7	opls
	8	class2	0	0	0	0	0	0	0	0
	9	class2	0	0	0	0	0	0	0	0
	10	class2	0	0	0	0	0	0	0	0
	11	class2	0	0	0	0	0	0	0	0

AngleTorsion Coeffs

	1	opls
	2	opls
	3	opls
	4	opls
	5	opls
	6	opls
	7	opls
	8	class2	0	0	0	0	0	0	0	0
	9	class2	0	0	0	0	0	0	0	0
	10	class2	0	0	0	0	0	0	0	0
	11	class2	0	0	0	0	0	0	0	0

AngleAngleTorsion Coeffs

	1	opls
	2	opls
	3	opls
	4	opls
	5	opls
	6	opls
	7	opls
	8	class2	0	0	0
	9	class2	0	0	0
	10	class2	0	0	0
	11	class2	0	0	0

BondBond13 Coeffs

	1	opls
	2	opls
	3	opls
	4	opls
	5	opls
	6	opls
	7	opls
	8	class2	0	0	0
	9	class2	0	0	0
	10	class2	0	0	0
	11	class2	0	0	0

Atoms

1	1	1	4	11.7214	17.1240	9.0758
2	1	3	0	11.7214	17.1240	10.9758
3	1	3	0	11.7214	18.5740	11.4898
4	1	1	4	11.7214	18.5740	13.3898
5	2	1	4	23.0014	10.0040	38.9611
6	2	3	0	23.0014	10.0040	40.8611
7	2	3	0	23.0014	11.4540	41.3751
8	2	1	4	23.0014	11.4540	43.2751
9	3	1	4	42.4694	24.9390	16.1171
10	3	3	0	42.4694	24.9390	18.0171
11	3	3	0	42.4694	26.3890	18.5311
12	3	1	4	42.4694	26.3890	20.4311
13	4	1	4	18.9869	35.8765	36.7548
14	4	3	0	18.9869	35.8765	38.6548
15	4	3	0	18.9869	37.3265	39.1688
16	4	1	4	18.9869	37.3265	41.0688
17	5	1	4	31.1801	0.5096	15.7310
18	5	3	0	31.1801	0.5096	17.6310
19	5	3	0	31.1801	1.9596	18.1450
20	5	1	4	31.1801	1.9596	20.0450
21	6	1	4	34.5279	7.4750	22.1126
22	6	3	0	34.5279	7.4750	24.0126
23	6	3	0	34.5279	8.9250	24.5266
24	6	1	4	34.5279	8.9250	26.4266
25	7	1	4	16.1219	39.3563	22.1688
26	7	3	0	16.1219	39.3563	24.0688
27	7	3	0	16.1219	40.8063	24.5828
28	7	1	4	16.1219	40.8063	26.4828
29	8	1	4	22.2338	4.6076	32.3738
30	8	3	0	22.2338	4.6076	34.2738
31	8	3	0	22.2338	6.0576	34.7878
32	8	1	4	22.2338	6.0576	36.6878
33	9	1	4	24.3517	6.6921	8.1002
34	9	3	0	24.3517	6.6921	10.0002
35	9	3	0	24.3517	8.1421	10.5142
36	9	1	4	24.3517	8.1421	12.4142
37	10	1	4	2.9654	0.5793	25.9815
38	10	3	0	2.9654	0.5793	27.8815
39	10	3	0	2.9654	2.0293	28.3955
40	10	1	4	2.9654	2.0293	30.2955
41	11	1	4	19.1048	22.9633	13.8319
42	11	3	0	19.1048	22.9633	15.7319
43	11	3	0	19.1048	24.4133	16.2459
44	11	1	4	19.1048	24.4133	18.1459
45	12	1	4	19.2994	28.2789	14.2025
46	12	3	0	19.2994	28.2789	16.1025
47	12	3	0	19.2994	29.7289	16.6165
48	12	1	4	19.2994	29.7289	18.5165
49	13	1	4	11.5251	17.8769	22.7079
50	13	3	0	11.5251	17.8769	24.6079
51	13	3	0	11.5251	19.3269	25.1219
52	13	1	4	11.5251	19.3269	27.0219
53	14	1	4	36.8728	27.5076	4.9918
54	14	3	0	36.8728	27.5076	6.8918
55	14	3	0	36.8728	28.9576	7.4058
56	14	1	4	36.8728	28.9576	9.3058
57	15	1	4	11.3385	1.3698	24.5099
58	15	3	0	11.3385	1.3698	26.4099
59	15	3	0	11.3385	2.8198	26.9239
60	15	1	4	11.3385	2.8198	28.8239
61	16	1	4	4.4907	13.9966	17.0802
62	16	3	0	4.4907	13.9966	18.9802
63	16	3	0	4.4907	15.4466	19.4942
64	16	1	4	4.4907	15.4466	21.3942
65	17	1	4	18.8625	14.9469	4.0910
66	17	3	0	18.8625	14.9469	5.9910
67	17	3	0	18.8625	16.3969	6.5050
68	17	1	4	18.8625	16.3969	8.4050
69	18	1	4	30.6647	34.7665	30.3401
70	18	3	0	30.6647	34.7665	32.2401
71	18	3	0	30.6647	36.2165	32.7541
72	18	1	4	30.6647	36.2165	34.6541
73	19	1	4	37.0864	25.5054	40.6979
74	19	3	0	37.0864	25.5054	42.5979
75	19	3	0	37.0864	26.9554	43.1119
76	19	1	4	37.0864	26.9554	45.0119
77	20	1	4	28.1088	36.5456	14.2418
78	20	3	0	28.1088	36.5456	16.1418
79	20	3	0	28.1088	37.9956	16.6558
80	20	1	4	28.1088	37.9956	18.5558
81	21	1	4	17.4204	42.7287	14.4456
82	21	3	0	17.4204	42.7287	16.3456
83	21	3	0	17.4204	44.1787	16.8596
84	21	1	4	17.4204	44.1787	18.7596
85	22	1	4	25.0199	20.3847	22.7679
86	22	3	0	25.0199	20.3847	24.6679
87	22	3	0	25.0199	21.8347	25.1819
88	22	1	4	25.0199	21.8347	27.0819
89	23	1	4	23.1129	29.8338	42.2062
90	23	3	0	23.1129	29.8338	44.1062
91	23	3	0	23.1129	31.2838	44.6202
92	23	1	4	23.1129	31.2838	46.5202
93	24	1	4	37.9581	19.4561	4.1789
94	24	3	0	37.9581	19.4561	6.0789
95	24	3	0	37.9581	20.9061	6.5929
96	24	1	4	37.9581	20.9061	8.4929
97	25	1	4	2.8932	43.7880	1.0543
98	25	3	0	2.8932	43.7880	2.9543
99	25	3	0	2.8932	45.2380	3.4683
100	25	1	4	2.8932	45.2380	5.3683
101	26	1	4	30.0114	14.1730	26.2062
102	26	3	0	30.0114	14.1730	28.1062
103	26	3	0	30.0114	15.6230	28.6202
104	26	1	4	30.0114	15.6230	30.5202
105	27	1	4	17.2154	28.9803	38.9678
106	27	3	0	17.2154	28.9803	40.8678
107	27	3	0	17.2154	30.4303	41.3818
108	27	1	4	17.2154	30.4303	43.2818
109	28	1	4	20.6220	12.8467	18.7285
110	28	3	0	20.6220	12.8467	20.6285
111	28	3	0	20.6220	14.2967	21.1425
112	28	1	4	20.6220	14.2967	23.0425
113	29	1	4	20.7050	16.7357	0.1709
114	29	3	0	20.7050	16.7357	2.0709
115	29	3	0	20.7050	18.1857	2.5849
116	29	1	4	20.7050	18.1857	4.4849
117	30	1	4	7.2133	2.9540	32.2503
118	30	3	0	7.2133	2.9540	34.1503
119	30	3	0	7.2133	4.4040	34.6643
120	30	1	4	7.2133	4.4040	36.5643
121	31	1	4	34.6271	35.1933	37.2970
122	31	3	0	34.6271	35.1933	39.1970
123	31	3	0	34.6271	36.6433	39.7110
124	31	1	4	34.6271	36.6433	41.6110
125	32	1	4	38.5627	31.7877	13.7092
126	32	3	0	38.5627	31.7877	15.6092
127	32	3	0	38.5627	33.2377	16.1232
128	32	1	4	38.5627	33.2377	18.0232
129	33	1	4	3.4007	42.9663	24.4135
130	33	3	0	3.4007	42.9663	26.3135
131	33	3	0	3.4007	44.4163	26.8275
132	33	1	4	3.4007	44.4163	28.7275
133	34	1	4	5.7374	2.1810	6.3440
134	34	3	0	5.7374	2.1810	8.2440
135	34	3	0	5.7374	3.6310	8.7580
136	34	1	4	5.7374	3.6310	10.6580
137	35	1	4	9.2106	39.6559	25.8303
138	35	3	0	9.2106	39.6559	27.7303
139	35	3	0	9.2106	41.1059	28.2443
140	35	1	4	9.2106	41.1059	30.1443
141	36	1	4	3.3812	15.3895	8.5086
142	36	3	0	3.3812	15.3895	10.4086
143	36	3	0	3.3812	16.8395	10.9226
144	36	1	4	3.3812	16.8395	12.8226
145	37	1	4	31.8844	6.1698	6.4388
146	37	3	0	31.8844	6.1698	8.3388
147	37	3	0	31.8844	7.6198	8.8528
148	37	1	4	31.8844	7.6198	10.7528
149	38	1	4	40.6475	40.3179	35.3726
150	38	3	0	40.6475	40.3179	37.2726
151	38	3	0	40.6475	41.7679	37.7866
152	38	1	4	40.6475	41.7679	39.6866
153	39	1	4	31.2715	5.8790	17.4861
154	39	3	0	31.2715	5.8790	19.3861
155	39	3	0	31.2715	7.3290	19.9001
156	39	1	4	31.2715	7.3290	21.8001
157	40	1	4	37.7030	44.1103	21.3262
158	40	3	0	37.7030	44.1103	23.2262
159	40	3	0	37.7030	45.5603	23.7402
160	40	1	4	37.7030	45.5603	25.6402
161	41	1	4	21.8369	3.8662	10.3185
162	41	3	0	21.8369	3.8662	12.2185
163	41	3	0	21.8369	5.3162	12.7325
164	41	1	4	21.8369	5.3162	14.6325
165	42	1	4	12.0975	27.8059	33.1304
166	42	3	0	12.0975	27.8059	35.0304
167	42	3	0	12.0975	29.2559	35.5444
168	42	1	4	12.0975	29.2559	37.4444
169	43	1	4	18.0531	4.5210	27.2172
170	43	3	0	18.0531	4.5210	29.1172
171	43	3	0	18.0531	5.9710	29.6312
172	43	1	4	18.0531	5.9710	31.5312
173	44	1	4	11.6280	21.3426	3.0694
174	44	3	0	11.6280	21.3426	4.9694
175	44	3	0	11.6280	22.7926	5.4834
176	44	1	4	11.6280	22.7926	7.3834
177	45	1	4	41.0683	7.6042	38.6067
178	45	3	0	41.0683	7.6042	40.5067
179	45	3	0	41.0683	9.0542	41.0207
180	45	1	4	41.0683	9.0542	42.9207
181	46	1	4	37.0290	10.3227	38.1868
182	46	3	0	37.0290	10.3227	40.0868
183	46	3	0	37.0290	11.7727	40.6008
184	46	1	4	37.0290	11.7727	42.5008
185	47	1	4	44.0450	42.0311	8.5964
186	47	3	0	44.0450	42.0311	10.4964
187	47	3	0	44.0450	43.4811	11.0104
188	47	1	4	44.0450	43.4811	12.9104
189	48	1	4	1.1757	39.7401	7.4732
190	48	3	0	1.1757	39.7401	9.3732
191	48	3	0	1.1757	41.1901	9.8872
192	48	1	4	1.1757	41.1901	11.7872
193	49	1	4	19.7861	12.6774	14.8092
194	49	3	0	19.7861	12.6774	16.7092
195	49	3	0	19.7861	14.1274	17.2232
196	49	1	4	19.7861	14.1274	19.1232
197	50	1	4	19.5359	34.0293	44.4007
198	50	3	0	19.5359	34.0293	46.3007
199	50	3	0	19.5359	35.4793	46.8147
200	50	1	4	19.5359	35.4793	48.7147
201	51	1	4	1.6005	15.5793	30.9321
202	51	3	0	1.6005	15.5793	32.8321
203	51	3	0	1.6005	17.0293	33.3461
204	51	1	4	1.6005	17.0293	35.2461
205	52	1	4	25.1808	31.1711	33.6894
206	52	3	0	25.1808	31.1711	35.5894
207	52	3	0	25.1808	32.6211	36.1034
208	52	1	4	25.1808	32.6211	38.0034
209	53	1	4	16.5033	24.9878	35.8065
210	53	3	0	16.5033	24.9878	37.7065
211	53	3	0	16.5033	26.4378	38.2205
212	53	1	4	16.5033	26.4378	40.1205
213	54	1	4	28.7759	38.5996	41.7760
214	54	3	0	28.7759	38.5996	43.6760
215	54	3	0	28.7759	40.0496	44.1900
216	54	1	4	28.7759	40.0496	46.0900
217	55	1	4	31.3468	20.9900	39.5772
218	55	3	0	31.3468	20.9900	41.4772
219	55	3	0	31.3468	22.4400	41.9912
220	55	1	4	31.3468	22.4400	43.8912
221	56	1	4	38.5609	16.9421	19.8993
222	56	3	0	38.5609	16.9421	21.7993
223	56	3	0	38.5609	18.3921	22.3133
224	56	1	4	38.5609	18.3921	24.2133
225	57	1	4	8.1024	28.9631	36.5476
226	57	3	0	8.1024	28.9631	38.4476
227	57	3	0	8.1024	30.4131	38.9616
228	57	1	4	8.1024	30.4131	40.8616
229	58	1	4	36.3775	14.0923	3.7241
230	58	3	0	36.3775	14.0923	5.6241
231	58	3	0	36.3775	15.5423	6.1381
232	58	1	4	36.3775	15.5423	8.0381
233	59	1	4	39.8269	20.0203	25.6918
234	59	3	0	39.8269	20.0203	27.5918
235	59	3	0	39.8269	21.4703	28.1058
236	59	1	4	39.8269	21.4703	30.0058
237	60	1	4	8.0554	18.0911	32.1297
238	60	3	0	8.0554	18.0911	34.0297
239	60	3	0	8.0554	19.5411	34.5437
240	60	1	4	8.0554	19.5411	36.4437
241	61	1	4	29.9997	4.3629	17.8433
242	61	3	0	29.9997	4.3629	19.7433
243	61	3	0	29.9997	5.8129	20.2573
244	61	1	4	29.9997	5.8129	22.1573
245	62	1	4	19.1899	42.0884	5.1935
246	62	3	0	19.1899	42.0884	7.0935
247	62	3	0	19.1899	43.5384	7.6075
248	62	1	4	19.1899	43.5384	9.5075
249	63	1	4	5.6622	7.3101	29.5017
250	63	3	0	5.6622	7.3101	31.4017
251	63	3	0	5.6622	8.7601	31.9157
252	63	1	4	5.6622	8.7601	33.8157
253	64	1	4	43.3247	14.4939	37.4182
254	64	3	0	43.3247	14.4939	39.3182
255	64	3	0	43.3247	15.9439	39.8322
256	64	1	4	43.3247	15.9439	41.7322
257	65	1	4	28.8814	43.1856	30.8671
258	65	3	0	28.8814	43.1856	32.7671
259	65	3	0	28.8814	44.6356	33.2811
260	65	1	4	28.8814	44.6356	35.1811
261	66	1	4	22.4908	42.2795	18.4831
262	66	3	0	22.4908	42.2795	20.3831
263	66	3	0	22.4908	43.7295	20.8971
264	66	1	4	22.4908	43.7295	22.7971
265	67	1	4	12.5772	17.4427	18.3999
266	67	3	0	12.5772	17.4427	20.2999
267	67	3	0	12.5772	18.8927	20.8139
268	67	1	4	12.5772	18.8927	22.7139
269	68	1	4	21.9211	39.0811	37.2794
270	68	3	0	21.9211	39.0811	39.1794
271	68	3	0	21.9211	40.5311	39.6934
272	68	1	4	21.9211	40.5311	41.5934
273	69	1	4	25.8769	20.6422	2.5368
274	69	3	0	25.8769	20.6422	4.4368
275	69	3	0	25.8769	22.0922	4.9508
276	69	1	4	25.8769	22.0922	6.8508
277	70	1	4	0.6580	41.2722	28.8130
278	70	3	0	0.6580	41.2722	30.7130
279	70	3	0	0.6580	42.7222	31.2270
280	70	1	4	0.6580	42.7222	33.1270
281	71	1	4	18.6646	36.8851	42.9504
282	71	3	0	18.6646	36.8851	44.8504
283	71	3	0	18.6646	38.3351	45.3644
284	71	1	4	18.6646	38.3351	47.2644
285	72	1	4	10.0192	19.1630	29.5627
286	72	3	0	10.0192	19.1630	31.4627
287	72	3	0	10.0192	20.6130	31.9767
288	72	1	4	10.0192	20.6130	33.8767
289	73	1	4	3.8312	29.1239	1.8868
290	73	3	0	3.8312	29.1239	3.7868
291	73	3	0	3.8312	30.5739	4.3008
292	73	1	4	3.8312	30.5739	6.2008
293	74	1	4	20.0989	5.7397	18.7897
294	74	3	0	20.0989	5.7397	20.6897
295	74	3	0	20.0989	7.1897	21.2037
296	74	1	4	20.0989	7.1897	23.1037
297	75	1	4	42.7278	19.2786	32.8500
298	75	3	0	42.7278	19.2786	34.7500
299	75	3	0	42.7278	20.7286	35.2640
300	75	1	4	42.7278	20.7286	37.1640
301	76	1	4	25.3072	16.2312	38.7620
302	76	3	0	25.3072	16.2312	40.6620
303	76	3	0	25.3072	17.6812	41.1760
304	76	1	4	25.3072	17.6812	43.0760
305	77	1	4	1.0295	34.0016	19.3320
306	77	3	0	1.0295	34.0016	21.2320
307	77	3	0	1.0295	35.4516	21.7460
308	77	1	4	1.0295	35.4516	23.6460
309	78	1	4	14.7400	6.7235	39.9532
310	78	3	0	14.7400	6.7235	41.8532
311	78	3	0	14.7400	8.1735	42.3672
312	78	1	4	14.7400	8.1735	44.2672
313	79	1	4	29.0501	10.6049	32.2893
314	79	3	0	29.0501	10.6049	34.1893
315	79	3	0	29.0501	12.0549	34.7033
316	79	1	4	29.0501	12.0549	36.6033
317	80	1	4	2.2034	25.8606	0.3138
318	80	3	0	2.2034	25.8606	2.2138
319	80	3	0	2.2034	27.3106	2.7278
320	80	1	4	2.2034	27.3106	4.6278
321	81	1	4	13.5422	27.6279	32.5570
322	81	3	0	13.5422	27.6279	34.4570
323	81	3	0	13.5422	29.0779	34.9710
324	81	1	4	13.5422	29.0779	36.8710
325	82	1	4	15.0579	4.7663	30.3650
326	82	3	0	15.0579	4.7663	32.2650
327	82	3	0	15.0579	6.2163	32.7790
328	82	1	4	15.0579	6.2163	34.6790
329	83	1	4	30.4935	34.2123	33.8282
330	83	3	0	30.4935	34.2123	35.7282
331	83	3	0	30.4935	35.6623	36.2422
332	83	1	4	30.4935	35.6623	38.1422
333	84	1	4	21.3704	40.8458	8.0687
334	84	3	0	21.3704	40.8458	9.9687
335	84	3	0	21.3704	42.2958	10.4827
336	84	1	4	21.3704	42.2958	12.3827
337	85	1	4	15.4201	0.6108	12.0904
338	85	3	0	15.4201	0.6108	13.9904
339	85	3	0	15.4201	2.0608	14.5044
340	85	1	4	15.4201	2.0608	16.4044
341	86	1	4	21.0665	24.7851	14.8799
342	86	3	0	21.0665	24.7851	16.7799
343	86	3	0	21.0665	26.2351	17.2939
344	86	1	4	21.0665	26.2351	19.1939
345	87	1	4	33.3767	21.7631	9.5525
346	87	3	0	33.3767	21.7631	11.4525
347	87	3	0	33.3767	23.2131	11.9665
348	87	1	4	33.3767	23.2131	13.8665
349	88	1	4	10.2522	40.3047	34.9234
350	88	3	0	10.2522	40.3047	36.8234
351	88	3	0	10.2522	41.7547	37.3374
352	88	1	4	10.2522	41.7547	39.2374
353	89	1	4	42.5202	23.2104	21.4510
354	89	3	0	42.5202	23.2104	23.3510
355	89	3	0	42.5202	24.6604	23.8650
356	89	1	4	42.5202	24.6604	25.7650
357	90	1	4	38.2681	40.1884	17.5828
358	90	3	0	38.2681	40.1884	19.4828
359	90	3	0	38.2681	41.6384	19.9968
360	90	1	4	38.2681	41.6384	21.8968
361	91	1	4	38.0816	14.1865	12.8132
362	91	3	0	38.0816	14.1865	14.7132
363	91	3	0	38.0816	15.6365	15.2272
364	91	1	4	38.0816	15.6365	17.1272
365	92	1	4	39.1692	39.2408	35.1617
366	92	3	0	39.1692	39.2408	37.0617
367	92	3	0	39.1692	40.6908	37.5757
368	92	1	4	39.1692	40.6908	39.4757
369	93	1	4	28.9789	24.0487	13.2352
370	93	3	0	28.9789	24.0487	15.1352
371	93	3	0	28.9789	25.4987	15.6492
372	93	1	4	28.9789	25.4987	17.5492
373	94	1	4	20.7695	22.4006	0.1401
374	94	3	0	20.7695	22.4006	2.0401
375	94	3	0	20.7695	23.8506	2.5541
376	94	1	4	20.7695	23.8506	4.4541
377	95	1	4	26.8867	39.9926	21.5531
378	95	3	0	26.8867	39.9926	23.4531
379	95	3	0	26.8867	41.4426	23.9671
380	95	1	4	26.8867	41.4426	25.8671
381	96	1	4	1.0108	27.7369	20.9161
382	96	3	0	1.0108	27.7369	22.8161
383	96	3	0	1.0108	29.1869	23.3301
384	96	1	4	1.0108	29.1869	25.2301
385	97	1	4	29.1288	7.3708	44.2767
386	97	3	0	29.1288	7.3708	46.1767
387	97	3	0	29.1288	8.8208	46.6907
388	97	1	4	29.1288	8.8208	48.5907
389	98	1	4	29.4037	39.0343	5.6755
390	98	3	0	29.4037	39.0343	7.5755
391	98	3	0	29.4037	40.4843	8.0895
392	98	1	4	29.4037	40.4843	9.9895
393	99	1	4	34.3249	25.0910	39.0769
394	99	3	0	34.3249	25.0910	40.9769
395	99	3	0	34.3249	26.5410	41.4909
396	99	1	4	34.3249	26.5410	43.3909
397	100	1	4	20.9446	42.5268	16.5527
398	100	3	0	20.9446	42.5268	18.4527
399	100	3	0	20.9446	43.9768	18.9667
400	100	1	4	20.9446	43.9768	20.8667
401	0	2	-2	44.0457	20.9284	17.0203
402	0	2	-2	5.7450	14.5527	40.4620
403	0	2	-2	13.9418	13.7735	6.9601
404	0	2	-2	11.3230	26.6871	9.0995
405	0	2	-2	16.4347	17.3808	38.0459
406	0	2	-2	37.1105	6.1950	41.1450
407	0	2	-2	37.4348	43.0283	9.7648
408	0	2	-2	12.8164	43.0601	36.7972
409	0	2	-2	27.4182	44.3090	26.3931
410	0	2	-2	34.5987	35.1157	1.5164
411	0	2	-2	1.5111	1.4272	40.0096
412	0	2	-2	37.4606	37.7142	0.2004
413	0	2	-2	6.1240	6.1004	15.4054
414	0	2	-2	7.4910	3.0218	36.4781
415	0	2	-2	2.3934	13.1382	16.2089
416	0	2	-2	1.5578	29.7118	6.1788
417	0	2	-2	1.4735	16.9414	37.7595
418	0	2	-2	36.1779	14.5275	37.8271
419	0	2	-2	11.3658	18.4167	16.5371
420	0	2	-2	30.8681	1.5374	18.7640
421	0	2	-2	9.3614	41.7285	25.2017
422	0	2	-2	38.3703	2.5992	22.9595
423	0	2	-2	14.9214	18.5647	22.3779
424	0	2	-2	9.1230	10.3280	10.5338
425	0	2	-2	2.8239	6.6308	19.9592
426	0	2	-2	9.5267	8.4231	32.4125
427	0	2	-2	6.5553	28.2657	7.2114
428	0	2	-2	8.2427	24.1852	14.6150
429	0	2	-2	9.6631	7.6376	41.9148
430	0	2	-2	34.0697	42.8165	12.1515
431	0	2	-2	40.7164	1.3653	7.5122
432	0	2	-2	0.6112	34.0636	43.0443
433	0	2	-2	33.1993	30.0168	22.8162
434	0	2	-2	11.5753	1.2267	39.8078
435	0	2	-2	0.1149	28.8488	13.6781
436	0	2	-2	13.0274	15.2395	34.5756
437	0	2	-2	34.5534	15.8475	0.6094
438	0	2	-2	0.8255	25.5426	1.7915
439	0	2	-2	25.4552	32.5451	43.3251
440	0	2	-2	0.3845	22.1079	20.0451
441	0	2	-2	2.8745	35.1950	36.4207
442	0	2	-2	18.4232	37.2225	22.0482
443	0	2	-2	38.0127	23.1997	6.1710
444	0	2	-2	40.2437	37.4524	4.4750
445	0	2	-2	2.8715	23.0980	25.6830
446	0	2	-2	10.9413	40.5367	2.2018
447	0	2	-2	15.0696	29.4051	29.0596
448	0	2	-2	29.6004	9.4051	7.0648
449	0	2	-2	2.2560	18.7719	33.9067
450	0	2	-2	36.1959	38.9085	15.1398
451	0	2	-2	33.4510	2.7503	5.4481
452	0	2	-2	15.7264	38.2610	40.9642
453	0	2	-2	42.2228	30.9279	13.5553
454	0	2	-2	5.9762	12.7131	16.6409
455	0	2	-2	35.9205	42.1393	40.0462
456	0	2	-2	2.6251	36.0198	36.7667
457	0	2	-2	14.4636	34.5015	37.2642
458	0	2	-2	30.7948	9.2277	11.7969
459	0	2	-2	15.5404	0.1461	21.7267
460	0	2	-2	9.3807	31.1674	20.3519
461	0	2	-2	25.8309	8.4639	41.2210
462	0	2	-2	1.8410	17.9287	35.9390
463	0	2	-2	2.8188	21.4243	18.9810
464	0	2	-2	13.0442	22.9257	4.6829
465	0	2	-2	31.1241	23.4248	21.5089
466	0	2	-2	24.3053	13.3838	11.6190
467	0	2	-2	12.6680	29.4017	27.9684
468	0	2	-2	26.0831	39.6715	4.8819
469	0	2	-2	22.4687	0.3633	8.2696
470	0	2	-2	27.8086	25.0559	2.6421
471	0	2	-2	33.1971	29.3381	21.7645
472	0	2	-2	16.5003	4.8786	7.5841
473	0	2	-2	41.3075	10.2979	17.0499
474	0	2	-2	16.6216	33.9596	29.7201
475	0	2	-2	0.8244	38.8969	33.1324
476	0	2	-2	33.7963	26.5911	16.4066
477	0	2	-2	15.5014	9.1774	32.8841
478	0	2	-2	34.5447	35.5250	22.3320
479	0	2	-2	22.4803	11.3051	13.2932
480	0	2	-2	20.1729	5.2976	3.8270
481	0	2	-2	0.2099	39.1965	5.2719
482	0	2	-2	11.6308	26.6456	35.9681
483	0	2	-2	34.5160	36.8464	9.9759
484	0	2	-2	32.4682	17.6977	4.9130
485	0	2	-2	14.5841	12.1905	19.1955
486	0	2	-2	15.2789	44.1356	15.9342
487	0	2	-2	17.5187	34.5935	29.6867
488	0	2	-2	34.5508	2.9068	38.7712
489	0	2	-2	20.1032	18.7941	12.3964
490	0	2	-2	8.0746	24.5539	23.7864
491	0	2	-2	10.9732	28.8300	32.2390
492	0	2	-2	24.2299	37.6445	5.3094
493	0	2	-2	22.1585	4.1944	2.3595
494	0	2	-2	20.2464	33.3725	6.9443
495	0	2	-2	39.6008	22.1451	14.0712
496	0	2	-2	26.9619	28.2845	40.7369
497	0	2	-2	7.2717	27.6729	32.8682
498	0	2	-2	15.8335	28.4855	35.3953
499	0	2	-2	15.2391	9.1327	28.5282
500	0	2	-2	18.4965	23.2489	38.5182
501	0	2	-2	29.4434	14.4460	14.9006
502	0	2	-2	29.4191	28.8203	31.5641
503	0	2	-2	6.5006	17.2806	37.1101
504	0	2	-2	35.4490	14.8635	2.9497
505	0	2	-2	18.3072	32.7269	36.6394
506	0	2	-2	11.5760	6.6351	29.8627
507	0	2	-2	37.1132	32.8515	12.8700
508	0	2	-2	19.7777	30.3552	3.2173
509	0	2	-2	28.3025	30.8230	9.3841
510	0	2	-2	35.7535	41.1580	24.1483
511	0	2	-2	26.8256	43.7762	20.9144
512	0	2	-2	36.2128	31.2488	21.3300
513	0	2	-2	39.8799	24.9499	19.3212
514	0	2	-2	14.3311	19.6350	26.1935
515	0	2	-2	20.4922	1.8357	33.5999
516	0	2	-2	22.0848	15.5123	23.1495
517	0	2	-2	5.1258	24.4732	1.4583
518	0	2	-2	33.7322	26.8246	11.9141
519	0	2	-2	16.0412	6.3072	11.9331
520	0	2	-2	38.4721	12.7789	30.6909
521	0	2	-2	14.2049	24.5693	39.1108
522	0	2	-2	29.6959	8.8980	15.0413
523	0	2	-2	2.2191	6.6047	6.2725
524	0	2	-2	3.8875	28.2783	13.1038
525	0	2	-2	24.4569	27.6393	16.1889
526	0	2	-2	20.1842	1.5676	19.1090
527	0	2	-2	17.6350	23.8051	8.2504
528	0	2	-2	17.4470	35.6373	2.5198
529	0	2	-2	15.6605	15.9485	0.2234
530	0	2	-2	41.5843	3.7902	39.4488
531	0	2	-2	1.4527	41.4581	27.5116
532	0	2	-2	3.8120	5.5681	5.7341
533	0	2	-2	32.4180	42.3496	40.4214
534	0	2	-2	21.7176	32.9380	10.2788
535	0	2	-2	42.0237	22.4305	33.7904
536	0	2	-2	43.9675	18.7671	24.5948
537	0	2	-2	0.0048	24.6711	44.0490
538	0	2	-2	10.0162	0.5914	33.9825
539	0	2	-2	14.7015	17.2984	43.7769
540	0	2	-2	4.6219	33.6611	20.6961
541	0	2	-2	17.3366	9.9987	34.9585
542	0	2	-2	38.4664	0.3827	1.5589
543	0	2	-2	5.4373	24.9571	21.3431
544	0	2	-2	31.0221	10.3905	39.6765
545	0	2	-2	36.7952	44.3245	34.9600
546	0	2	-2	33.6039	7.0699	42.1675
547	0	2	-2	11.9538	37.8029	1.7573
548	0	2	-2	5.0461	30.5739	23.9913
549	0	2	-2	22.5340	21.1812	11.1316
550	0	2	-2	5.4412	23.0802	33.9417
551	0	2	-2	17.3005	13.5211	39.6406
552	0	2	-2	20.9614	8.6066	28.2887
553	0	2	-2	40.8148	35.3329	32.7966
554	0	2	-2	23.5948	8.9930	21.0258
555	0	2	-2	37.8256	15.9989	29.9539
556	0	2	-2	11.2670	33.6122	1.9663
557	0	2	-2	5.3553	27.5295	41.1196
558	0	2	-2	0.3833	19.7229	1.8369
559	0	2	-2	7.1672	20.5728	9.2071
560	0	2	-2	28.3877	13.6429	31.5455
561	0	2	-2	25.9934	27.8007	13.3263
562	0	2	-2	30.2135	16.8670	6.3043
563	0	2	-2	4.9538	29.1423	21.8382
564	0	2	-2	31.9473	41.7468	30.9042
565	0	2	-2	34.5555	41.6337	28.1963
566	0	2	-2	3.1797	7.6945	14.5343
567	0	2	-2	1.9901	41.3394	8.0649
568	0	2	-2	33.1848	44.2882	36.7080
569	0	2	-2	31.1321	8.7026	35.4442
570	0	2	-2	21.7556	31.7429	22.2118
571	0	2	-2	31.6370	22.8911	23.4419
572	0	2	-2	7.9306	39.0970	30.1456
573	0	2	-2	41.5587	41.6290	37.4061
574	0	2	-2	16.5214	9.0105	11.9597
575	0	2	-2	28.3424	40.8411	11.2261
576	0	2	-2	3.5203	15.0932	20.5016
577	0	2	-2	25.3563	3.0276	39.1963
578	0	2	-2	20.2072	22.4597	16.5573
579	0	2	-2	4.8492	20.0098	31.4231
580	0	2	-2	37.3196	31.1027	4.7229
581	0	2	-2	35.2843	9.3481	14.9601
582	0	2	-2	25.0679	30.4580	39.9896
583	0	2	-2	1.7214	34.1976	11.9358
584	0	2	-2	6.9688	30.5265	19.5660
585	0	2	-2	43.9470	22.2162	32.0531
586	0	2	-2	3.9134	41.8974	4.3194
587	0	2	-2	41.3995	43.5603	18.8973
588	0	2	-2	14.0597	7.3218	19.0128
589	0	2	-2	43.9237	34.9459	0.6724
590	0	2	-2	15.1187	18.1187	37.7406
591	0	2	-2	20.3045	5.5074	37.3549
592	0	2	-2	23.6421	26.4801	9.7358
593	0	2	-2	2.3460	26.5864	42.0599
594	0	2	-2	28.9898	13.5819	20.4362
595	0	2	-2	24.3439	29.7415	39.3610
596	0	2	-2	44.4033	18.6452	38.0094
597	0	2	-2	42.9937	4.6755	0.2915
598	0	2	-2	8.0302	28.3210	18.1383
599	0	2	-2	43.8628	29.1590	31.9140
600	0	2	-2	29.2734	1.9183	28.7557
601	0	2	-2	39.7049	42.0476	4.3709
602	0	2	-2	3.1658	27.7052	3.5876
603	0	2	-2	34.7846	35.0798	15.5260
604	0	2	-2	1.2344	16.5420	5.8702
605	0	2	-2	21.9718	34.9875	9.9541
606	0	2	-2	28.2158	16.6798	10.6614
607	0	2	-2	11.2400	6.0094	15.0934
608	0	2	-2	6.6642	13.6141	17.9095
609	0	2	-2	8.4617	29.2621	37.5850
610	0	2	-2	7.4908	16.0592	10.1803
611	0	2	-2	13.9310	31.2835	0.0470
612	0	2	-2	28.4803	32.1202	39.0689
613	0	2	-2	17.2638	43.2632	3.7043
614	0	2	-2	38.6799	13.3928	5.0748
615	0	2	-2	34.6606	6.6358	28.0785
616	0	2	-2	19.6019	27.2732	20.5089
617	0	2	-2	10.4012	41.3828	22.0913
618	0	2	-2	26.0719	42.3333	39.5208
619	0	2	-2	11.2648	22.5329	37.0154
620	0	2	-2	24.0931	41.8260	18.8732
621	0	2	-2	9.3684	14.2715	2.0895
622	0	2	-2	16.6725	35.0708	29.7897
623	0	2	-2	7.9208	13.3313	22.1124
624	0	2	-2	35.1578	24.7345	17.2747
625	0	2	-2	15.6048	25.4676	3.1335
626	0	2	-2	38.5670	25.8659	11.8105
627	0	2	-2	31.4120	18.2585	34.1188
628	0	2	-2	24.7671	10.0312	31.9709
629	0	2	-2	40.4517	21.2649	33.1247
630	0	2	-2	29.5463	29.9333	23.6079
631	0	2	-2	36.9950	37.7018	39.5498
632	0	2	-2	12.0131	14.8936	6.0012
633	0	2	-2	44.0918	27.8075	22.6140
634	0	2	-2	39.2554	34.8532	33.2359
635	0	2	-2	26.9374	3.3457	36.1993
636	0	2	-2	42.4888	36.4324	22.1117
637	0	2	-2	29.1563	6.4625	23.1626
638	0	2	-2	0.3060	28.9263	11.3196
639	0	2	-2	18.8915	15.6426	43.0060
640	0	2	-2	27.6788	40.1254	14.2221
641	0	2	-2	42.7887	26.4653	27.5553
642	0	2	-2	2.8221	10.5418	15.9357
643	0	2	-2	40.1725	16.1871	14.9316
644	0	2	-2	22.7700	29.2429	42.4956
645	0	2	-2	11.8895	25.1891	39.8486
646	0	2	-2	34.0208	15.7119	44.1294
647	0	2	-2	29.6241	30.0265	37.7284
648	0	2	-2	8.3516	36.5721	8.5187
649	0	2	-2	24.4792	3.5808	21.3307
650	0	2	-2	4.4758	20.5646	38.9371
651	0	2	-2	1.9324	34.2243	15.8784
652	0	2	-2	0.6825	40.6049	26.5608
653	0	2	-2	27.2522	9.0003	17.5090
654	0	2	-2	35.0306	9.3798	3.3367
655	0	2	-2	9.9693	15.9215	21.6018
656	0	2	-2	15.7276	19.7833	34.3158
657	0	2	-2	21.7408	40.4175	3.8948
658	0	2	-2	11.7303	14.0057	34.7433
659	0	2	-2	9.0011	29.0507	29.0397
660	0	2	-2	20.6321	28.7935	2.7376
661	0	2	-2	22.6580	4.1976	32.6431
662	0	2	-2	30.7930	9.5652	33.5046
663	0	2	-2	28.3382	29.6373	3.4329
664	0	2	-2	17.1469	34.5084	32.9796
665	0	2	-2	31.5228	21.9169	35.1591
666	0	2	-2	27.5090	36.5062	4.8548
667	0	2	-2	10.9828	30.3377	37.4943
668	0	2	-2	2.8684	23.6832	15.8325
669	0	2	-2	31.3660	42.5281	42.5390
670	0	2	-2	30.1547	10.3700	33.7864
671	0	2	-2	0.2363	32.0006	43.1233
672	0	2	-2	22.6496	15.1926	32.6143
673	0	2	-2	1.6374	1.5940	6.8010
674	0	2	-2	32.4999	29.1855	31.8819
675	0	2	-2	26.8543	2.3860	38.4667
676	0	2	-2	9.7465	39.5957	41.7006
677	0	2	-2	12.0545	13.4330	34.8423
678	0	2	-2	27.5092	22.8251	12.5787
679	0	2	-2	33.2654	26.9496	9.0326
680	0	2	-2	22.7588	23.1609	0.6470
681	0	2	-2	0.0250	36.6615	5.4648
682	0	2	-2	17.8983	17.4717	4.2638
683	0	2	-2	18.7710	38.3163	42.1491
684	0	2	-2	41.7644	14.5245	0.2365
685	0	2	-2	7.6054	18.7049	41.7456
686	0	2	-2	42.5015	14.5097	8.0163
687	0	2	-2	21.8721	15.1663	30.8681
688	0	2	-2	19.1606	28.8654	32.7821
689	0	2	-2	41.9989	15.6659	8.1952
690	0	2	-2	11.3381	13.5181	23.9878
691	0	2	-2	28.2680	3.4501	6.5402
692	0	2	-2	30.1050	7.4245	12.7029
693	0	2	-2	16.3491	11.4271	16.9764
694	0	2	-2	44.2662	2.5487	16.0004
695	0	2	-2	32.6408	4.8137	7.9525
696	0	2	-2	26.8991	34.0270	15.7310
697	0	2	-2	26.8854	9.9248	28.4371
698	0	2	-2	14.8040	43.9634	24.4081
699	0	2	-2	34.7663	41.4737	40.2560
700	0	2	-2	26.4756	29.6694	29.0332
701	0	2	-2	3.4290	3.4411	21.9049
702	0	2	-2	27.5763	19.8328	6.1475
703	0	2	-2	23.0515	19.9652	2.0107
704	0	2	-2	40.9845	5.3169	31.2614
705	0	2	-2	18.3562	16.1241	41.9137
706	0	2	-2	9.6460	9.4954	14.2220
707	0	2	-2	20.7259	40.4156	24.1529
708	0	2	-2	14.3085	42.1532	25.5862
709	0	2	-2	14.5204	9.6934	15.8282
710	0	2	-2	6.1555	43.4991	4.2686
711	0	2	-2	11.6985	14.0186	11.1378
712	0	2	-2	8.1102	24.9114	17.9384
713	0	2	-2	10.4577	35.4840	4.7485
714	0	2	-2	10.5423	35.4215	20.2463
715	0	2	-2	34.9572	6.3240	22.6260
716	0	2	-2	20.8051	24.8657	33.9349
717	0	2	-2	30.7913	28.5742	19.0278
718	0	2	-2	29.9877	39.4420	28.3998
719	0	2	-2	1.5126	40.0688	19.9502
720	0	2	-2	9.2876	4.5531	34.0535
721	0	2	-2	25.4247	38.9900	38.7703
722	0	2	-2	20.0416	14.5408	9.4765
723	0	2	-2	2.1645	37.3850	35.1694
724	0	2	-2	26.7921	34.9957	12.2426
725	0	2	-2	17.1059	3.8641	24.1047
726	0	2	-2	11.6848	0.2242	43.3615
727	0	2	-2	7.7394	0.8603	20.3978
728	0	2	-2	4.6837	5.1237	36.7030
729	0	2	-2	28.8466	27.6470	4.6810
730	0	2	-2	9.0417	2.9674	37.7279
731	0	2	-2	22.6522	5.3662	34.1264
732	0	2	-2	30.7253	35.1492	21.1968
733	0	2	-2	35.1659	25.5630	23.6549

Bonds

1	1	1	2
2	2	2	3
3	1	3	4
4	1	5	6
5	2	6	7
6	1	7	8
7	1	9	10
8	2	10	11
9	1	11	12
10	1	13	14
11	2	14	15
12	1	15	16
13	1	17	18
14	2	18	19
15	1	19	20
16	1	21	22
17	2	22	23
18	1	23	24
19	1	25	26
20	2	26	27
21	1	27	28
22	1	29	30
23	2	30	31
24	1	31	32
25	1	33	34
26	2	34	35
27	1	35	36
28	1	37	38
29	2	38	39
30	1	39	40
31	1	41	42
32	2	42	43
33	1	43	44
34	1	45	46
35	2	46	47
36	1	47	48
37	1	49	50
38	2	50	51
39	1	51	52
40	1	53	54
41	2	54	55
42	1	55	56
43	1	57	58
44	2	58	59
45	1	59	60
46	1	61	62
47	2	62	63
48	1	63	64
49	1	65	66
50	2	66	67
51	1	67	68
52	1	69	70
53	2	70	71
54	1	71	72
55	1	73	74
56	2	74	75
57	1	75	76
58	1	77	78
59	2	78	79
60	1	79	80
61	1	81	82
62	2	82	83
63	1	83	84
64	1	85	86
65	2	86	87
66	1	87	88
67	1	89	90
68	2	90	91
69	1	91	92
70	1	93	94
71	2	94	95
72	1	95	96
73	1	97	98
74	2	98	99
75	1	99	100
76	1	101	102
77	2	102	103
78	1	103	104
79	1	105	106
80	2	106	107
81	1	107	108
82	1	109	110
83	2	110	111
84	1	111	112
85	1	113	114
86	2	114	115
87	1	115	116
88	1	117	118
89	2	118	119
90	1	119	120
91	1	121	122
92	2	122	123
93	1	123	124
94	1	125	126
95	2	126	127
96	1	127	128
97	1	129	130
98	2	130	131
99	1	131	132
100	1	133	134
101	2	134	135
102	1	135	136
103	1	137	138
104	2	138	139
105	1	139	140
106	1	141	142
107	2	142	143
108	1	143	144
109	1	145	146
110	2	146	147
111	1	147	148
112	1	149	150
113	2	150	151
114	1	151	152
115	1	153	154
116	2	154	155
117	1	155	156
118	1	157	158
119	2	158	159
120	1	159	160
121	1	161	162
122	2	162	163
123	1	163	164
124	1	165	166
125	2	166	167
126	1	167	168
127	1	169	170
128	2	170	171
129	1	171	172
130	1	173	174
131	2	174	175
132	1	175	176
133	1	177	178
134	2	178	179
135	1	179	180
136	1	181	182
137	2	182	183
138	1	183	184
139	1	185	186
140	2	186	187
141	1	187	188
142	1	189	190
143	2	190	191
144	1	191	192
145	1	193	194
146	2	194	195
147	1	195	196
148	1	197	198
149	2	198	199
150	1	199	200
151	1	201	202
152	2	202	203
153	1	203	204
154	1	205	206
155	2	206	207
156	1	207	208
157	1	209	210
158	2	210	211
159	1	211	212
160	1	213	214
161	2	214	215
162	1	215	216
163	1	217	218
164	2	218	219
165	1	219	220
166	1	221	222
167	2	222	223
168	1	223	224
169	1	225	226
170	2	226	227
171	1	227	228
172	1	229	230
173	2	230	231
174	1	231	232
175	1	233	234
176	2	234	235
177	1	235	236
178	1	237	238
179	2	238	239
180	1	239	240
181	1	241	242
182	2	242	243
183	1	243	244
184	1	245	246
185	2	246	247
186	1	247	248
187	1	249	250
188	2	250	251
189	1	251	252
190	1	253	254
191	2	254	255
192	1	255	256
193	1	257	258
194	2	258	259
195	1	259	260
196	1	261	262
197	2	262	263
198	1	263	264
199	1	265	266
200	2	266	267
201	1	267	268
202	1	269	270
203	2	270	271
204	1	271	272
205	1	273	274
206	2	274	275
207	1	275	276
208	1	277	278
209	2	278	279
210	1	279	280
211	1	281	282
212	2	282	283
213	1	283	284
214	1	285	286
215	2	286	287
216	1	287	288
217	1	289	290
218	2	290	291
219	1	291	292
220	1	293	294
221	2	294	295
222	1	295	296
223	1	297	298
224	2	298	299
225	1	299	300
226	1	301	302
227	2	302	303
228	1	303	304
229	1	305	306
230	2	306	307
231	1	307	308
232	1	309	310
233	2	310	311
234	1	311	312
235	1	313	314
236	2	314	315
237	1	315	316
238	1	317	318
239	2	318	319
240	1	319	320
241	1	321	322
242	2	322	323
243	1	323	324
244	1	325	326
245	2	326	327
246	1	327	328
247	1	329	330
248	2	330	331
249	1	331	332
250	1	333	334
251	2	334	335
252	1	335	336
253	1	337	338