# data file for 100 EtOCS precursors with porosity capabilities 
-4 50 xlo xhi
-4 50 ylo yhi
-4 50 zlo zhi

600 atoms
300 bonds
200 angles
100 dihedrals

3 atom types
3 bond types
1 angle types
11 dihedral types

Masses

	1	28
	2	16
	3	12

Angle Coeffs

	1	3.38	109.5185

Bond Coeffs

	1	20	1.9000
	2	20	1.5384
	3	20	1.5227

Dihedral Coeffs

	1	opls	0.3750	-0.2000	0.6250	-0.1000
	2	opls	0.0179	-0.0075	0.0613	-0.0025
	3	opls	0.0169	-0.0034	0.0596	-0.0029
	4	opls	0.0061	-0.0064	0.0680	-0.0032
	5	opls	5.1866	-0.7573	0.1955	-0.0484
	6	opls	0.0865	-0.0347	0.1369	0.0009
	7	opls	0.0260	-0.0152	0.0313	-0.0022
	8	class2	0.0035	180.0000	0.0027	180.0000	0.0293	0.0000
	9	class2	0.0000	0.0000	0.0107	180.0000	0.0000	0.0000
	10	class2	5.5263	0.0000	0.0530	-180.0000	-0.4549	0.0000
	11	class2	-0.0021	180.0000	0.0068	-180.0000	0.0249	180.0000

MiddleBondTorsion Coeffs

	1	opls
	2	opls
	3	opls
	4	opls
	5	opls
	6	opls
	7	opls
	8	class2	0	0	0	0
	9	class2	0	0	0	0
	10	class2	0	0	0	0
	11	class2	0	0	0	0

EndBondTorsion Coeffs

	1	opls
	2	opls
	3	opls
	4	opls
	5	opls
	6	opls
	7	opls
	8	class2	0	0	0	0	0	0	0	0
	9	class2	0	0	0	0	0	0	0	0
	10	class2	0	0	0	0	0	0	0	0
	11	class2	0	0	0	0	0	0	0	0

AngleTorsion Coeffs

	1	opls
	2	opls
	3	opls
	4	opls
	5	opls
	6	opls
	7	opls
	8	class2	0	0	0	0	0	0	0	0
	9	class2	0	0	0	0	0	0	0	0
	10	class2	0	0	0	0	0	0	0	0
	11	class2	0	0	0	0	0	0	0	0

AngleAngleTorsion Coeffs

	1	opls
	2	opls
	3	opls
	4	opls
	5	opls
	6	opls
	7	opls
	8	class2	0	0	0
	9	class2	0	0	0
	10	class2	0	0	0
	11	class2	0	0	0

BondBond13 Coeffs

	1	opls
	2	opls
	3	opls
	4	opls
	5	opls
	6	opls
	7	opls
	8	class2	0	0	0
	9	class2	0	0	0
	10	class2	0	0	0
	11	class2	0	0	0

Atoms

1	1	1	4	28.6186	1.4272	13.4076
2	1	3	0	28.6186	1.4272	15.3076
3	1	3	0	28.6186	2.8772	15.8216
4	1	1	4	28.6186	2.8772	17.7216
5	2	1	4	1.0584	1.7830	17.1623
6	2	3	0	1.0584	1.7830	19.0623
7	2	3	0	1.0584	3.2330	19.5763
8	2	1	4	1.0584	3.2330	21.4763
9	3	1	4	17.7443	37.2074	18.7781
10	3	3	0	17.7443	37.2074	20.6781
11	3	3	0	17.7443	38.6574	21.1921
12	3	1	4	17.7443	38.6574	23.0921
13	4	1	4	26.2111	33.3668	8.9660
14	4	3	0	26.2111	33.3668	10.8660
15	4	3	0	26.2111	34.8168	11.3800
16	4	1	4	26.2111	34.8168	13.2800
17	5	1	4	40.1111	32.3988	38.1177
18	5	3	0	40.1111	32.3988	40.0177
19	5	3	0	40.1111	33.8488	40.5317
20	5	1	4	40.1111	33.8488	42.4317
21	6	1	4	34.7067	29.8071	1.8415
22	6	3	0	34.7067	29.8071	3.7415
23	6	3	0	34.7067	31.2571	4.2555
24	6	1	4	34.7067	31.2571	6.1555
25	7	1	4	0.7215	32.6808	16.5149
26	7	3	0	0.7215	32.6808	18.4149
27	7	3	0	0.7215	34.1308	18.9289
28	7	1	4	0.7215	34.1308	20.8289
29	8	1	4	27.9471	13.6937	16.5640
30	8	3	0	27.9471	13.6937	18.4640
31	8	3	0	27.9471	15.1437	18.9780
32	8	1	4	27.9471	15.1437	20.8780
33	9	1	4	27.9540	30.8073	16.0950
34	9	3	0	27.9540	30.8073	17.9950
35	9	3	0	27.9540	32.2573	18.5090
36	9	1	4	27.9540	32.2573	20.4090
37	10	1	4	19.0429	20.5839	2.3609
38	10	3	0	19.0429	20.5839	4.2609
39	10	3	0	19.0429	22.0339	4.7749
40	10	1	4	19.0429	22.0339	6.6749
41	11	1	4	36.8534	34.7215	15.9716
42	11	3	0	36.8534	34.7215	17.8716
43	11	3	0	36.8534	36.1715	18.3856
44	11	1	4	36.8534	36.1715	20.2856
45	12	1	4	14.8334	11.7170	39.3719
46	12	3	0	14.8334	11.7170	41.2719
47	12	3	0	14.8334	13.1670	41.7859
48	12	1	4	14.8334	13.1670	43.6859
49	13	1	4	12.9018	19.2927	7.9513
50	13	3	0	12.9018	19.2927	9.8513
51	13	3	0	12.9018	20.7427	10.3653
52	13	1	4	12.9018	20.7427	12.2653
53	14	1	4	30.5743	2.8961	8.3660
54	14	3	0	30.5743	2.8961	10.2660
55	14	3	0	30.5743	4.3461	10.7800
56	14	1	4	30.5743	4.3461	12.6800
57	15	1	4	40.2587	25.6667	12.2748
58	15	3	0	40.2587	25.6667	14.1748
59	15	3	0	40.2587	27.1167	14.6888
60	15	1	4	40.2587	27.1167	16.5888
61	16	1	4	9.4840	40.6788	5.1994
62	16	3	0	9.4840	40.6788	7.0994
63	16	3	0	9.4840	42.1288	7.6134
64	16	1	4	9.4840	42.1288	9.5134
65	17	1	4	30.2241	20.1513	33.5885
66	17	3	0	30.2241	20.1513	35.4885
67	17	3	0	30.2241	21.6013	36.0025
68	17	1	4	30.2241	21.6013	37.9025
69	18	1	4	12.3477	3.4675	11.0104
70	18	3	0	12.3477	3.4675	12.9104
71	18	3	0	12.3477	4.9175	13.4244
72	18	1	4	12.3477	4.9175	15.3244
73	19	1	4	3.0681	16.9842	13.1427
74	19	3	0	3.0681	16.9842	15.0427
75	19	3	0	3.0681	18.4342	15.5567
76	19	1	4	3.0681	18.4342	17.4567
77	20	1	4	1.4678	14.5513	40.8708
78	20	3	0	1.4678	14.5513	42.7708
79	20	3	0	1.4678	16.0013	43.2848
80	20	1	4	1.4678	16.0013	45.1848
81	21	1	4	25.6133	26.4098	18.9140
82	21	3	0	25.6133	26.4098	20.8140
83	21	3	0	25.6133	27.8598	21.3280
84	21	1	4	25.6133	27.8598	23.2280
85	22	1	4	27.0465	27.3070	40.9321
86	22	3	0	27.0465	27.3070	42.8321
87	22	3	0	27.0465	28.7570	43.3461
88	22	1	4	27.0465	28.7570	45.2461
89	23	1	4	15.5636	6.7422	7.5835
90	23	3	0	15.5636	6.7422	9.4835
91	23	3	0	15.5636	8.1922	9.9975
92	23	1	4	15.5636	8.1922	11.8975
93	24	1	4	19.6262	5.5390	6.7205
94	24	3	0	19.6262	5.5390	8.6205
95	24	3	0	19.6262	6.9890	9.1345
96	24	1	4	19.6262	6.9890	11.0345
97	25	1	4	34.4002	25.4895	24.5629
98	25	3	0	34.4002	25.4895	26.4629
99	25	3	0	34.4002	26.9395	26.9769
100	25	1	4	34.4002	26.9395	28.8769
101	26	1	4	24.3678	9.0760	36.4159
102	26	3	0	24.3678	9.0760	38.3159
103	26	3	0	24.3678	10.5260	38.8299
104	26	1	4	24.3678	10.5260	40.7299
105	27	1	4	12.9608	10.1767	23.6657
106	27	3	0	12.9608	10.1767	25.5657
107	27	3	0	12.9608	11.6267	26.0797
108	27	1	4	12.9608	11.6267	27.9797
109	28	1	4	35.8437	30.4578	34.6410
110	28	3	0	35.8437	30.4578	36.5410
111	28	3	0	35.8437	31.9078	37.0550
112	28	1	4	35.8437	31.9078	38.9550
113	29	1	4	2.1542	9.4794	16.1088
114	29	3	0	2.1542	9.4794	18.0088
115	29	3	0	2.1542	10.9294	18.5228
116	29	1	4	2.1542	10.9294	20.4228
117	30	1	4	19.9803	34.8150	32.4036
118	30	3	0	19.9803	34.8150	34.3036
119	30	3	0	19.9803	36.2650	34.8176
120	30	1	4	19.9803	36.2650	36.7176
121	31	1	4	31.8554	6.4362	17.1913
122	31	3	0	31.8554	6.4362	19.0913
123	31	3	0	31.8554	7.8862	19.6053
124	31	1	4	31.8554	7.8862	21.5053
125	32	1	4	26.4776	24.7353	29.2894
126	32	3	0	26.4776	24.7353	31.1894
127	32	3	0	26.4776	26.1853	31.7034
128	32	1	4	26.4776	26.1853	33.6034
129	33	1	4	24.2436	26.7184	22.1613
130	33	3	0	24.2436	26.7184	24.0613
131	33	3	0	24.2436	28.1684	24.5753
132	33	1	4	24.2436	28.1684	26.4753
133	34	1	4	4.2078	35.0666	13.8623
134	34	3	0	4.2078	35.0666	15.7623
135	34	3	0	4.2078	36.5166	16.2763
136	34	1	4	4.2078	36.5166	18.1763
137	35	1	4	35.3077	12.0299	15.3177
138	35	3	0	35.3077	12.0299	17.2177
139	35	3	0	35.3077	13.4799	17.7317
140	35	1	4	35.3077	13.4799	19.6317
141	36	1	4	12.5366	13.4822	7.7560
142	36	3	0	12.5366	13.4822	9.6560
143	36	3	0	12.5366	14.9322	10.1700
144	36	1	4	12.5366	14.9322	12.0700
145	37	1	4	37.8024	29.8627	25.9023
146	37	3	0	37.8024	29.8627	27.8023
147	37	3	0	37.8024	31.3127	28.3163
148	37	1	4	37.8024	31.3127	30.2163
149	38	1	4	27.3434	25.9651	2.6379
150	38	3	0	27.3434	25.9651	4.5379
151	38	3	0	27.3434	27.4151	5.0519
152	38	1	4	27.3434	27.4151	6.9519
153	39	1	4	10.6632	23.9154	7.1519
154	39	3	0	10.6632	23.9154	9.0519
155	39	3	0	10.6632	25.3654	9.5659
156	39	1	4	10.6632	25.3654	11.4659
157	40	1	4	31.1136	35.1747	25.7404
158	40	3	0	31.1136	35.1747	27.6404
159	40	3	0	31.1136	36.6247	28.1544
160	40	1	4	31.1136	36.6247	30.0544
161	41	1	4	22.0216	14.8094	34.1789
162	41	3	0	22.0216	14.8094	36.0789
163	41	3	0	22.0216	16.2594	36.5929
164	41	1	4	22.0216	16.2594	38.4929
165	42	1	4	33.1508	3.1161	19.6243
166	42	3	0	33.1508	3.1161	21.5243
167	42	3	0	33.1508	4.5661	22.0383
168	42	1	4	33.1508	4.5661	23.9383
169	43	1	4	35.0781	4.4290	2.7745
170	43	3	0	35.0781	4.4290	4.6745
171	43	3	0	35.0781	5.8790	5.1885
172	43	1	4	35.0781	5.8790	7.0885
173	44	1	4	36.3646	13.1059	8.2156
174	44	3	0	36.3646	13.1059	10.1156
175	44	3	0	36.3646	14.5559	10.6296
176	44	1	4	36.3646	14.5559	12.5296
177	45	1	4	3.6366	30.3252	29.5138
178	45	3	0	3.6366	30.3252	31.4138
179	45	3	0	3.6366	31.7752	31.9278
180	45	1	4	3.6366	31.7752	33.8278
181	46	1	4	32.3204	5.5924	15.3842
182	46	3	0	32.3204	5.5924	17.2842
183	46	3	0	32.3204	7.0424	17.7982
184	46	1	4	32.3204	7.0424	19.6982
185	47	1	4	21.5987	15.3784	32.6229
186	47	3	0	21.5987	15.3784	34.5229
187	47	3	0	21.5987	16.8284	35.0369
188	47	1	4	21.5987	16.8284	36.9369
189	48	1	4	20.4700	37.7042	23.8912
190	48	3	0	20.4700	37.7042	25.7912
191	48	3	0	20.4700	39.1542	26.3052
192	48	1	4	20.4700	39.1542	28.2052
193	49	1	4	4.9621	18.1817	33.2560
194	49	3	0	4.9621	18.1817	35.1560
195	49	3	0	4.9621	19.6317	35.6700
196	49	1	4	4.9621	19.6317	37.5700
197	50	1	4	40.8881	29.4511	22.2775
198	50	3	0	40.8881	29.4511	24.1775
199	50	3	0	40.8881	30.9011	24.6915
200	50	1	4	40.8881	30.9011	26.5915
201	51	1	4	35.7574	11.2590	11.2813
202	51	3	0	35.7574	11.2590	13.1813
203	51	3	0	35.7574	12.7090	13.6953
204	51	1	4	35.7574	12.7090	15.5953
205	52	1	4	15.5768	32.7359	24.8445
206	52	3	0	15.5768	32.7359	26.7445
207	52	3	0	15.5768	34.1859	27.2585
208	52	1	4	15.5768	34.1859	29.1585
209	53	1	4	17.4184	8.3898	27.5707
210	53	3	0	17.4184	8.3898	29.4707
211	53	3	0	17.4184	9.8398	29.9847
212	53	1	4	17.4184	9.8398	31.8847
213	54	1	4	39.4657	28.8192	10.0422
214	54	3	0	39.4657	28.8192	11.9422
215	54	3	0	39.4657	30.2692	12.4562
216	54	1	4	39.4657	30.2692	14.3562
217	55	1	4	41.2704	8.8108	31.7452
218	55	3	0	41.2704	8.8108	33.6452
219	55	3	0	41.2704	10.2608	34.1592
220	55	1	4	41.2704	10.2608	36.0592
221	56	1	4	12.8402	39.8521	22.9142
222	56	3	0	12.8402	39.8521	24.8142
223	56	3	0	12.8402	41.3021	25.3282
224	56	1	4	12.8402	41.3021	27.2282
225	57	1	4	6.6870	38.0718	27.1339
226	57	3	0	6.6870	38.0718	29.0339
227	57	3	0	6.6870	39.5218	29.5479
228	57	1	4	6.6870	39.5218	31.4479
229	58	1	4	41.5350	37.8415	11.4447
230	58	3	0	41.5350	37.8415	13.3447
231	58	3	0	41.5350	39.2915	13.8587
232	58	1	4	41.5350	39.2915	15.7587
233	59	1	4	5.6418	4.3685	13.9017
234	59	3	0	5.6418	4.3685	15.8017
235	59	3	0	5.6418	5.8185	16.3157
236	59	1	4	5.6418	5.8185	18.2157
237	60	1	4	35.8675	35.7751	29.5874
238	60	3	0	35.8675	35.7751	31.4874
239	60	3	0	35.8675	37.2251	32.0014
240	60	1	4	35.8675	37.2251	33.9014
241	61	1	4	41.5663	12.6892	12.9359
242	61	3	0	41.5663	12.6892	14.8359
243	61	3	0	41.5663	14.1392	15.3499
244	61	1	4	41.5663	14.1392	17.2499
245	62	1	4	35.1389	28.3964	8.4344
246	62	3	0	35.1389	28.3964	10.3344
247	62	3	0	35.1389	29.8464	10.8484
248	62	1	4	35.1389	29.8464	12.7484
249	63	1	4	15.6341	18.2205	26.2607
250	63	3	0	15.6341	18.2205	28.1607
251	63	3	0	15.6341	19.6705	28.6747
252	63	1	4	15.6341	19.6705	30.5747
253	64	1	4	25.8455	3.8894	8.9151
254	64	3	0	25.8455	3.8894	10.8151
255	64	3	0	25.8455	5.3394	11.3291
256	64	1	4	25.8455	5.3394	13.2291
257	65	1	4	9.5678	29.9460	21.9320
258	65	3	0	9.5678	29.9460	23.8320
259	65	3	0	9.5678	31.3960	24.3460
260	65	1	4	9.5678	31.3960	26.2460
261	66	1	4	16.6509	13.5284	4.3706
262	66	3	0	16.6509	13.5284	6.2706
263	66	3	0	16.6509	14.9784	6.7846
264	66	1	4	16.6509	14.9784	8.6846
265	67	1	4	29.9685	12.7574	39.7825
266	67	3	0	29.9685	12.7574	41.6825
267	67	3	0	29.9685	14.2074	42.1965
268	67	1	4	29.9685	14.2074	44.0965
269	68	1	4	24.8026	14.7297	5.0422
270	68	3	0	24.8026	14.7297	6.9422
271	68	3	0	24.8026	16.1797	7.4562
272	68	1	4	24.8026	16.1797	9.3562
273	69	1	4	8.6521	23.5089	2.3046
274	69	3	0	8.6521	23.5089	4.2046
275	69	3	0	8.6521	24.9589	4.7186
276	69	1	4	8.6521	24.9589	6.6186
277	70	1	4	4.3421	26.1546	18.5513
278	70	3	0	4.3421	26.1546	20.4513
279	70	3	0	4.3421	27.6046	20.9653
280	70	1	4	4.3421	27.6046	22.8653
281	71	1	4	27.3955	41.4413	8.2137
282	71	3	0	27.3955	41.4413	10.1137
283	71	3	0	27.3955	42.8913	10.6277
284	71	1	4	27.3955	42.8913	12.5277
285	72	1	4	16.1092	36.6680	40.1562
286	72	3	0	16.1092	36.6680	42.0562
287	72	3	0	16.1092	38.1180	42.5702
288	72	1	4	16.1092	38.1180	44.4702
289	73	1	4	39.9423	31.1167	15.1355
290	73	3	0	39.9423	31.1167	17.0355
291	73	3	0	39.9423	32.5667	17.5495
292	73	1	4	39.9423	32.5667	19.4495
293	74	1	4	10.3893	36.4438	5.4923
294	74	3	0	10.3893	36.4438	7.3923
295	74	3	0	10.3893	37.8938	7.9063
296	74	1	4	10.3893	37.8938	9.8063
297	75	1	4	36.8857	2.4867	3.2617
298	75	3	0	36.8857	2.4867	5.1617
299	75	3	0	36.8857	3.9367	5.6757
300	75	1	4	36.8857	3.9367	7.5757
301	76	1	4	7.0435	38.1698	23.1546
302	76	3	0	7.0435	38.1698	25.0546
303	76	3	0	7.0435	39.6198	25.5686
304	76	1	4	7.0435	39.6198	27.4686
305	77	1	4	18.8731	8.9678	35.6738
306	77	3	0	18.8731	8.9678	37.5738
307	77	3	0	18.8731	10.4178	38.0878
308	77	1	4	18.8731	10.4178	39.9878
309	78	1	4	4.0614	2.3411	24.0236
310	78	3	0	4.0614	2.3411	25.9236
311	78	3	0	4.0614	3.7911	26.4376
312	78	1	4	4.0614	3.7911	28.3376
313	79	1	4	8.0295	9.9011	41.2290
314	79	3	0	8.0295	9.9011	43.1290
315	79	3	0	8.0295	11.3511	43.6430
316	79	1	4	8.0295	11.3511	45.5430
317	80	1	4	17.0601	4.1672	32.7280
318	80	3	0	17.0601	4.1672	34.6280
319	80	3	0	17.0601	5.6172	35.1420
320	80	1	4	17.0601	5.6172	37.0420
321	81	1	4	34.8275	24.1015	37.1232
322	81	3	0	34.8275	24.1015	39.0232
323	81	3	0	34.8275	25.5515	39.5372
324	81	1	4	34.8275	25.5515	41.4372
325	82	1	4	28.1618	9.3304	9.7619
326	82	3	0	28.1618	9.3304	11.6619
327	82	3	0	28.1618	10.7804	12.1759
328	82	1	4	28.1618	10.7804	14.0759
329	83	1	4	13.5914	4.1831	15.2366
330	83	3	0	13.5914	4.1831	17.1366
331	83	3	0	13.5914	5.6331	17.6506
332	83	1	4	13.5914	5.6331	19.5506
333	84	1	4	15.6185	14.7095	1.1720
334	84	3	0	15.6185	14.7095	3.0720
335	84	3	0	15.6185	16.1595	3.5860
336	84	1	4	15.6185	16.1595	5.4860
337	85	1	4	16.8093	22.4929	22.1209
338	85	3	0	16.8093	22.4929	24.0209
339	85	3	0	16.8093	23.9429	24.5349
340	85	1	4	16.8093	23.9429	26.4349
341	86	1	4	12.8731	31.7993	35.3080
342	86	3	0	12.8731	31.7993	37.2080
343	86	3	0	12.8731	33.2493	37.7220
344	86	1	4	12.8731	33.2493	39.6220
345	87	1	4	38.9466	16.4643	16.5048
346	87	3	0	38.9466	16.4643	18.4048
347	87	3	0	38.9466	17.9143	18.9188
348	87	1	4	38.9466	17.9143	20.8188
349	88	1	4	19.7617	21.2409	2.2096
350	88	3	0	19.7617	21.2409	4.1096
351	88	3	0	19.7617	22.6909	4.6236
352	88	1	4	19.7617	22.6909	6.5236
353	89	1	4	15.5705	37.8394	1.6511
354	89	3	0	15.5705	37.8394	3.5511
355	89	3	0	15.5705	39.2894	4.0651
356	89	1	4	15.5705	39.2894	5.9651
357	90	1	4	25.3939	30.8133	20.3716
358	90	3	0	25.3939	30.8133	22.2716
359	90	3	0	25.3939	32.2633	22.7856
360	90	1	4	25.3939	32.2633	24.6856
361	91	1	4	29.6301	5.2370	2.8758
362	91	3	0	29.6301	5.2370	4.7758
363	91	3	0	29.6301	6.6870	5.2898
364	91	1	4	29.6301	6.6870	7.1898
365	92	1	4	4.1383	26.7563	15.9360
366	92	3	0	4.1383	26.7563	17.8360
367	92	3	0	4.1383	28.2063	18.3500
368	92	1	4	4.1383	28.2063	20.2500
369	93	1	4	36.2984	8.9563	10.3125
370	93	3	0	36.2984	8.9563	12.2125
371	93	3	0	36.2984	10.4063	12.7265
372	93	1	4	36.2984	10.4063	14.6265
373	94	1	4	38.9725	36.4024	12.7900
374	94	3	0	38.9725	36.4024	14.6900
375	94	3	0	38.9725	37.8524	15.2040
376	94	1	4	38.9725	37.8524	17.1040
377	95	1	4	17.1721	20.6833	26.8167
378	95	3	0	17.1721	20.6833	28.7167
379	95	3	0	17.1721	22.1333	29.2307
380	95	1	4	17.1721	22.1333	31.1307
381	96	1	4	37.7486	0.6245	33.0034
382	96	3	0	37.7486	0.6245	34.9034
383	96	3	0	37.7486	2.0745	35.4174
384	96	1	4	37.7486	2.0745	37.3174
385	97	1	4	5.4455	14.5778	2.3661
386	97	3	0	5.4455	14.5778	4.2661
387	97	3	0	5.4455	16.0278	4.7801
388	97	1	4	5.4455	16.0278	6.6801
389	98	1	4	2.6241	4.4476	33.7641
390	98	3	0	2.6241	4.4476	35.6641
391	98	3	0	2.6241	5.8976	36.1781
392	98	1	4	2.6241	5.8976	38.0781
393	99	1	4	1.1860	1.5911	33.2050
394	99	3	0	1.1860	1.5911	35.1050
395	99	3	0	1.1860	3.0411	35.6190
396	99	1	4	1.1860	3.0411	37.5190
397	100	1	4	23.0819	9.6299	15.4107
398	100	3	0	23.0819	9.6299	17.3107
399	100	3	0	23.0819	11.0799	17.8247
400	100	1	4	23.0819	11.0799	19.7247
401	0	2	-2	5.1962	28.3651	3.5013
402	0	2	-2	22.4749	9.2350	27.3295
403	0	2	-2	27.4545	34.6713	16.0636
404	0	2	-2	8.2615	14.3748	28.4928
405	0	2	-2	34.3811	30.5351	10.4112
406	0	2	-2	30.6425	39.8218	26.6799
407	0	2	-2	27.4925	5.0588	27.0488
408	0	2	-2	5.5672	34.2711	38.0214
409	0	2	-2	31.2275	20.7148	5.5120
410	0	2	-2	10.3180	24.5120	31.9083
411	0	2	-2	35.1851	25.9127	5.8492
412	0	2	-2	10.7508	36.5281	9.6866
413	0	2	-2	39.2273	15.1072	24.7323
414	0	2	-2	20.6085	15.3802	15.1473
415	0	2	-2	13.9576	30.5265	24.5530
416	0	2	-2	33.9175	39.8101	37.1471
417	0	2	-2	36.2163	9.3153	26.7846
418	0	2	-2	1.4278	5.5628	32.1393
419	0	2	-2	12.5072	21.4085	7.4501
420	0	2	-2	38.6396	13.1995	39.8254
421	0	2	-2	37.2974	18.8911	5.5870
422	0	2	-2	6.0891	4.7964	37.8871
423	0	2	-2	39.7944	18.3961	21.1647
424	0	2	-2	17.5420	33.9161	3.7583
425	0	2	-2	24.8575	32.3030	2.4036
426	0	2	-2	19.4993	26.7796	15.1616
427	0	2	-2	23.5351	32.0389	11.4198
428	0	2	-2	13.3263	23.2615	32.6184
429	0	2	-2	6.0851	29.2818	14.0144
430	0	2	-2	32.8962	10.3438	18.8277
431	0	2	-2	14.5975	28.2745	39.7928
432	0	2	-2	26.0112	4.6250	7.8274
433	0	2	-2	0.7541	14.2077	41.0180
434	0	2	-2	16.0114	1.3136	21.8232
435	0	2	-2	9.8219	28.2320	28.0151
436	0	2	-2	16.4639	40.0181	38.8504
437	0	2	-2	18.9294	36.6141	21.4241
438	0	2	-2	17.3944	19.9986	6.5905
439	0	2	-2	31.8897	32.2211	13.2733
440	0	2	-2	37.4746	17.4988	9.7425
441	0	2	-2	32.0816	30.0479	35.4758
442	0	2	-2	10.5612	40.9837	31.6583
443	0	2	-2	15.6653	41.0555	19.0240
444	0	2	-2	12.4143	27.5757	17.9254
445	0	2	-2	1.6707	22.9116	29.3959
446	0	2	-2	29.2918	36.6765	11.4632
447	0	2	-2	25.7228	35.6298	24.4777
448	0	2	-2	35.1455	32.4397	15.5617
449	0	2	-2	1.8283	38.1551	4.5967
450	0	2	-2	35.7929	35.4566	27.2522
451	0	2	-2	27.6019	20.0085	18.9870
452	0	2	-2	22.8719	34.7022	7.3032
453	0	2	-2	17.0435	35.7175	30.7379
454	0	2	-2	31.1745	31.1911	24.3849
455	0	2	-2	41.2351	18.0627	26.8558
456	0	2	-2	24.0004	7.9341	38.7739
457	0	2	-2	31.7657	40.5371	17.9721
458	0	2	-2	33.5599	19.5228	14.1889
459	0	2	-2	19.6979	15.3267	8.9437
460	0	2	-2	22.7575	12.6369	13.9375
461	0	2	-2	6.2480	36.8397	26.0584
462	0	2	-2	13.6946	31.4832	9.2644
463	0	2	-2	35.1218	3.6361	15.9234
464	0	2	-2	18.7186	5.6130	14.9978
465	0	2	-2	23.5717	3.9680	4.1835
466	0	2	-2	30.9530	8.6292	20.1339
467	0	2	-2	6.7958	34.9135	8.9662
468	0	2	-2	7.9643	40.5031	40.9844
469	0	2	-2	6.9496	41.1925	20.5984
470	0	2	-2	2.2293	11.9288	28.9893
471	0	2	-2	32.6245	30.9018	37.7586
472	0	2	-2	5.1571	2.7090	18.8443
473	0	2	-2	17.2447	25.4091	41.3489
474	0	2	-2	16.6016	25.1230	19.4077
475	0	2	-2	15.5097	8.3578	14.7785
476	0	2	-2	23.7826	35.9843	24.7707
477	0	2	-2	14.7771	2.4444	27.3985
478	0	2	-2	12.7576	10.0112	15.8413
479	0	2	-2	29.5213	30.7592	4.1148
480	0	2	-2	14.8686	18.0172	34.4745
481	0	2	-2	27.5941	22.4094	20.8395
482	0	2	-2	26.6894	4.4950	19.9986
483	0	2	-2	25.5546	33.5387	23.2475
484	0	2	-2	6.1084	22.6434	18.6239
485	0	2	-2	10.8775	22.0330	24.1085
486	0	2	-2	19.8746	11.4435	17.3399
487	0	2	-2	18.6486	5.0501	3.1693
488	0	2	-2	28.3369	38.5987	14.3741
489	0	2	-2	35.8047	2.4186	27.9079
490	0	2	-2	24.5515	17.1989	36.9319
491	0	2	-2	10.5152	1.3829	20.0269
492	0	2	-2	24.8228	11.7646	40.8595
493	0	2	-2	13.4332	4.5061	39.0269
494	0	2	-2	11.2913	29.9434	1.4518
495	0	2	-2	18.6208	34.9530	14.1836
496	0	2	-2	18.4015	16.6560	38.5788
497	0	2	-2	2.5306	24.6812	35.4879
498	0	2	-2	32.7108	2.1589	32.5497
499	0	2	-2	36.2622	31.2601	35.0977
500	0	2	-2	38.9134	4.7112	8.6372
501	0	2	-2	39.1231	22.0674	16.7154
502	0	2	-2	23.0554	2.0104	40.3309
503	0	2	-2	30.9815	29.2233	19.8630
504	0	2	-2	23.9112	12.4189	31.9691
505	0	2	-2	34.1175	19.4632	20.6644
506	0	2	-2	5.9504	4.0934	31.4260
507	0	2	-2	10.2151	36.4582	15.3682
508	0	2	-2	30.2543	31.5728	7.6881
509	0	2	-2	39.4135	25.4762	17.1803
510	0	2	-2	3.9993	38.5428	37.4769
511	0	2	-2	19.1252	32.4247	34.2654
512	0	2	-2	37.7570	21.0782	34.8262
513	0	2	-2	25.6700	40.0837	17.9374
514	0	2	-2	9.3664	0.3441	33.3547
515	0	2	-2	40.3172	30.4984	20.9100
516	0	2	-2	12.8445	33.1776	28.8563
517	0	2	-2	12.3029	9.6202	10.2517
518	0	2	-2	28.2991	35.3580	37.2889
519	0	2	-2	5.5359	36.1977	14.3309
520	0	2	-2	22.5231	7.8674	14.9339
521	0	2	-2	10.0606	31.7236	35.7720
522	0	2	-2	25.5423	0.1400	29.7649
523	0	2	-2	22.5534	19.0963	25.3648
524	0	2	-2	25.3488	18.8643	39.7128
525	0	2	-2	40.3947	2.7810	22.3928
526	0	2	-2	4.3089	22.0739	13.9640
527	0	2	-2	38.4944	9.6367	21.7366
528	0	2	-2	4.8061	39.8265	0.5837
529	0	2	-2	18.3444	37.8171	21.0643
530	0	2	-2	17.9558	41.0826	37.4273
531	0	2	-2	32.5386	14.6543	27.9653
532	0	2	-2	9.0629	39.2041	2.8185
533	0	2	-2	22.2749	32.3600	17.2666
534	0	2	-2	14.6639	40.2690	13.1064
535	0	2	-2	27.9595	17.7664	33.0961
536	0	2	-2	38.7776	34.8247	10.3454
537	0	2	-2	6.2175	8.2520	23.6366
538	0	2	-2	15.3458	11.8697	38.4224
539	0	2	-2	10.1660	18.8984	14.0340
540	0	2	-2	41.2756	24.9186	34.0489
541	0	2	-2	20.6789	28.5508	12.6457
542	0	2	-2	34.2429	7.8312	0.5113
543	0	2	-2	27.1181	31.8138	13.6533
544	0	2	-2	10.7952	22.4093	40.9293
545	0	2	-2	21.6703	14.7899	38.1376
546	0	2	-2	31.5590	2.3146	37.6350
547	0	2	-2	38.7473	26.2803	40.2180
548	0	2	-2	0.4504	25.7219	17.9333
549	0	2	-2	14.5757	18.5753	31.4115
550	0	2	-2	12.6111	37.4141	6.1970
551	0	2	-2	23.8304	34.7161	5.0395
552	0	2	-2	9.0712	40.9026	18.3142
553	0	2	-2	39.4299	23.8198	24.9731
554	0	2	-2	39.5813	27.5540	2.2931
555	0	2	-2	37.1682	1.0166	30.9196
556	0	2	-2	14.9981	27.4600	6.7245
557	0	2	-2	11.5876	1.2529	34.0550
558	0	2	-2	35.9475	20.9928	20.0925
559	0	2	-2	35.3531	26.4006	14.8517
560	0	2	-2	0.7554	6.7704	18.9893
561	0	2	-2	11.7607	14.8075	14.8403
562	0	2	-2	29.4117	11.6547	39.1404
563	0	2	-2	1.8932	5.8771	19.8796
564	0	2	-2	19.3061	2.2737	5.3217
565	0	2	-2	13.3353	16.7522	0.2297
566	0	2	-2	38.6208	23.2127	1.5385
567	0	2	-2	12.4738	27.7266	34.9404
568	0	2	-2	0.9066	13.1872	37.7692
569	0	2	-2	32.5390	2.2935	10.0610
570	0	2	-2	30.2770	40.9474	13.9974
571	0	2	-2	4.1619	3.2474	8.0784
572	0	2	-2	13.5672	41.2520	16.7892
573	0	2	-2	35.9167	36.8469	15.5925
574	0	2	-2	6.4768	19.8536	39.0441
575	0	2	-2	12.6782	17.3833	31.6350
576	0	2	-2	41.0838	19.3628	24.3985
577	0	2	-2	24.3410	4.8805	13.7547
578	0	2	-2	41.2022	5.4272	4.3629
579	0	2	-2	12.7701	20.3362	3.4667
580	0	2	-2	6.8170	35.5856	26.4075
581	0	2	-2	8.0358	7.2007	18.5936
582	0	2	-2	0.2763	24.1841	14.9541
583	0	2	-2	38.8237	29.1942	38.8945
584	0	2	-2	6.3740	27.0297	27.0939
585	0	2	-2	19.6976	32.6834	21.3154
586	0	2	-2	15.6549	24.8470	21.1464
587	0	2	-2	36.8644	20.8494	40.1111
588	0	2	-2	30.8777	39.9640	38.3919
589	0	2	-2	34.1901	27.1432	25.3631
590	0	2	-2	22.5182	28.7283	9.7445
591	0	2	-2	38.9709	4.7674	16.9181
592	0	2	-2	4.7548	15.9430	7.9986
593	0	2	-2	41.1746	1.8651	23.2889
594	0	2	-2	22.5839	23.9879	25.4276
595	0	2	-2	16.3315	29.0959	11.4497
596	0	2	-2	6.5929	14.7118	33.3189
597	0	2	-2	37.8014	13.1582	34.2645
598	0	2	-2	21.2902	1.6912	0.2643
599	0	2	-2	15.9432	33.1083	29.1943
600	0	2	-2	26.9434	2.2754	17.3673

Bonds

1	1	1	2
2	2	2	3
3	1	3	4
4	1	5	6
5	2	6	7
6	1	7	8
7	1	9	10
8	2	10	11
9	1	11	12
10	1	13	14
11	2	14	15
12	1	15	16
13	1	17	18
14	2	18	19
15	1	19	20
16	1	21	22
17	2	22	23
18	1	23	24
19	1	25	26
20	2	26	27
21	1	27	28
22	1	29	30
23	2	30	31
24	1	31	32
25	1	33	34
26	2	34	35
27	1	35	36
28	1	37	38
29	2	38	39
30	1	39	40
31	1	41	42
32	2	42	43
33	1	43	44
34	1	45	46
35	2	46	47
36	1	47	48
37	1	49	50
38	2	50	51
39	1	51	52
40	1	53	54
41	2	54	55
42	1	55	56
43	1	57	58
44	2	58	59
45	1	59	60
46	1	61	62
47	2	62	63
48	1	63	64
49	1	65	66
50	2	66	67
51	1	67	68
52	1	69	70
53	2	70	71
54	1	71	72
55	1	73	74
56	2	74	75
57	1	75	76
58	1	77	78
59	2	78	79
60	1	79	80
61	1	81	82
62	2	82	83
63	1	83	84
64	1	85	86
65	2	86	87
66	1	87	88
67	1	89	90
68	2	90	91
69	1	91	92
70	1	93	94
71	2	94	95
72	1	95	96
73	1	97	98
74	2	98	99
75	1	99	100
76	1	101	102
77	2	102	103
78	1	103	104
79	1	105	106
80	2	106	107
81	1	107	108
82	1	109	110
83	2	110	111
84	1	111	112
85	1	113	114
86	2	114	115
87	1	115	116
88	1	117	118
89	2	118	119
90	1	119	120
91	1	121	122
92	2	122	123
93	1	123	124
94	1	125	126
95	2	126	127
96	1	127	128
97	1	129	130
98	2	130	131
99	1	131	132
100	1	133	134
101	2	134	135
102	1	135	136
103	1	137	138
104	2	138	139
105	1	139	140
106	1	141	142
107	2	142	143
108	1	143	144
109	1	145	146
110	2	146	147
111	1	147	148
112	1	149	150
113	2	150	151
114	1	151	152
115	1	153	154
116	2	154	155
117	1	155	156
118	1	157	158
119	2	158	159
120	1	159	160
121	1	161	162
122	2	162	163
123	1	163	164
124	1	165	166
125	2	166	167
126	1	167	168
127	1	169	170
128	2	170	171
129	1	171	172
130	1	173	174
131	2	174	175
132	1	175	176
133	1	177	178
134	2	178	179
135	1	179	180
136	1	181	182
137	2	182	183
138	1	183	184
139	1	185	186
140	2	186	187
141	1	187	188
142	1	189	190
143	2	190	191
144	1	191	192
145	1	193	194
146	2	194	195
147	1	195	196
148	1	197	198
149	2	198	199
150	1	199	200
151	1	201	202
152	2	202	203
153	1	203	204
154	1	205	206
155	2	206	207
156	1	207	208
157	1	209	210
158	2	210	211
159	1	211	212
160	1	213	214
161	2	214	215
162	1	215	216
163	1	217	218
164	2	218	219
165	1	219	220
166	1	221	222
167	2	222	223
168	1	223	224
169	1	225	226
170	2	226	227
171	1	227	228
172	1	229	230
173	2	230	231
174	1	231	232
175	1	233	234
176	2	234	235
177	1	235	236
178	1	237	238
179	2	238	239
180	1	239	240
181	1	241	242
182	2	242	243
183	1	243	244
184	1	245	246
185	2	246	247
186	1	247	248
187	1	249	250
188	2	250	251
189	1	251	252
190	1	253	254
191	2	254	255
192	1	255	256
193	1	257	258
194	2	258	259
195	1	259	260
196	1	261	262
197	2	262	263
198	1	263	264
199	1	265	266
200	2	266	267
201	1	267	268
202	1	269	270
203	2	270	271
204	1	271	272
205	1	273	274
206	2	274	275
207	1	275	276
208	1	277	278
209	2	278	279
210	1	279	280
211	1	281	282
212	2	282	283
213	1	283	284
214	1	285	286
215	2	286	287
216	1	287	288
217	1	289	290
218	2	290	291
219	1	291	292
220	1	293	294
221	2	294	295
222	1	295	296
223	1	297	298
224	2	298	299
225	1	299	300
226	1	301	302
227	2	302	303
228	1	303	304
229	1	305	306
230	2	306	307
231	1	307	308
232	1	309	310
233	2	310	311
234	1	311	312
235	1	313	314
236	2	314	315
237	1	315	316
238	1	317	318
239	2	318	319
240	1	319	320
241	1	321	322
242	2	322	323
243	1	323	324
244	1	325	326
245	2	326	327
246	1	327	328
247	1	329	330
248	2	330	331
249	1	331	332
250	1	333	334
251	2	334	335
252	1	335	336
253	1	337	338
254	2	338	339
255	1	339	340
256	1	341	342
257	2	342	343
258	1	343	344
259	1	345	346
260	2	346	347
261	1	347	348
262	1	349	350
263	2	350	351
264	1	351	352
265	1	353	354
266	2	354	355
267	1	355	356
268	1	357	358
269	2	358	359
270	1	359	360
271	1	361	362
272	2	362	363
273	1	363	364
274	1	365	366
275	2	366	367
276	1	367	368
277	1	369	370
278	2	370	371
279	1	371	372
280	1	373	374
281	2	374	375
282	1	375	376
283	1	377	378
284	2	378	379
285	1	379	380
286	1	381	382
287	2	382	383
288	1	383	384
289	1	385	386
290	2	386	387
291	1	387	388
292	1	389	390
293	2	390	391
294	1	391	392
295	1	393	394
296	2	394	395
297	1	395	396
298	1	397	398
299	2	398	399
300	1	399	400

Angles

1	1	1	2	3
2	1	2	3	4
3	1	5	6	7
4	1	6	7	8
5	1	9	10	11
6	1	10	11	12
7	1	13	14	15
8	1	14	15	16
9	1	17	18	19
10	1	18	19	20
11	1	21	22	23
12	1	22	23	24
13	1	25	26	27
14	1	26	27	28
15	1	29	30	31
16	1	30	31	32
17	1	33	34	35
18	1	34	35	36
19	1	37	38	39
20	1	38	39	40
21	1	41	42	43
22	1	42	43	44
23	1	45	46	47
24	1	46	47	48
25	1	49	50	51
26	1	50	51	52
27	1	53	54	55
28	1	54	55	56
29	1	57	58	59
30	1	58	59	60
31	1	61	62	63
32	1	62	63	64
33	1	65	66	67
34	1	66	67	68
35	1	69	70	71
36	1	70	71	72
37	1	73	74	75
38	1	74	75	76
39	1	77	78	79
40	1	78	79	80
41	1	81	82	83
42	1	82	83	84
43	1	85	86	87
44	1	86	87	88
45	1	89	90	91
46	1	90	91	92
47	1	93	94	95
48	1	94	95	96
49	1	97	98	99
50	1	98	99	100
51	1	101	102	103
52	1	102	103	104
53	1	105	106	107
54	1	106	107	108
55	1	109	110	111
56	1	110	111	112
57	1	113	114	115
58	1	114	115	116
59	1	117	118	119
60	1	118	119	120
61	1	121	122	123
62	1	122	123	124
63	1	125	126	127
64	1	126	127	128
65	1	129	130	131
66	1	130	131	132
67	1	133	134	135
68	1	134	135	136
69	1	137	138	139
70	1	138	139	140
71	1	141	142	143
72	1	142	143	144
73	1	145	146	147
74	1	146	147	148
75	1	149	150	151
76	1	150	151	152
77	1	153	154	155
78	1	154	155	156
79	1	157	158	159
80	1	158	159	160
81	1	161	162	163
82	1	162	163	164
83	1	165	166	167
84	1	166	167	168
85	1	169	170	171
86	1	170	171	172
87	1	173	174	175
88	1	174	175	176
89	1	177	178	179
90	1	178	179	180
91	1	181	182	183
92	1	182	183	184
93	1	185	186	187
94	1	186	187	188
95	1	189	190	191
96	1	190	191	192
97	1	193	194	195
98	1	194	195	196
99	1	197	198	199
100	1	198	199	200
101	1	201	202	203
102	1	202	203	204
103	1	205	206	207
104	1	206	207	208
105	1	209	210	211
106	1	210	211	212
107	1	213	214	215
108	1	214	215	216
109	1	217	218	219
110	1	218	219	220
111	1	221	222	223
112	1	222	223	224
113	1	225	226	227
114	1	226	227	228
115	1	229	230	231
116	1	230	231	232
117	1	233	234	235
118	1	234	235	236
119	1	237	238	239
120	1	238	239	240
121	1	241	242	243
122	1	242	243	244
123	1	245	246	247
124	1	246	247	248
125	1	249	250	251
126	1	250	251	252
127	1	253	254	255
128	1	254	255	256
129	1	257	258	259
130	1	258	259	260
131	1	261	262	263
132	1	262	263	264
133	1	265	266	267
134	1	266	267	268
135	1	269	270	271
136	1	270	271	272
137	1	273	274	275
138	1	274	275	276
139	1	277	278	279
140	1	278	279	280
141	1	281	282	283
142	1	282	283	284
143	1	285	286	287
144	1	286	287	288
145	1	289	290	291
146	1	290	291	292
147	1	293	294	295
148	1	294	295	296
149	1	297	298	299
150	1	298	299	300
151	1	301	302	303
152	1	302	303	304
153	1	305	306	307
154	1	306	307	308
155	1	309	310	311
156	1	310	311	312
157	1	313	314	315
158	1	314	315	316
159	1	317	318	319
160	1	318	319	320
161	1	321	322	323
162	1	322	323	324
163	1	325	326	327
164	1	326	327	328
165	1	329	330	331
166	1	330	331	332
167	1	333	334	335
168	1	334	335	336
169	1	337	338	339
170	1	338	339	340
171	1	341	342	343
172	1	342	343	344
173	1	345	346	347
174	1	346	347	348
175	1	349	350	351
176	1	350	351	352
177	1	353	354	355
178	1	354	355	356
179	1	357	358	359
180	1	358	359	360
181	1	361	362	363
182	1	362	363	364
183	1	365	366	367
184	1	366	367	368
185	1	369	370	371
186	1	370	371	372
187	1	373	374	375
188	1	374	375	376
189	1	377	378	379
190	1	378	379	380
191	1	381	382	383
192	1	382	383	384
193	1	385	386	387
194	1	386	387	388
195	1	389	390	391
196	1	390	391	392
197	1	393	394	395
198	1	394	395	396
199	1	397	398	399
200	1	398	399	400

Dihedrals

1	1	1	2	3	4
2	1	5	6	7	8
3	1	9	10	11	12
4	1	13	14	15	16
5	1	17	18	19	20
6	1	21	22	23	24
7	1	25	26	27	28
8	1	29	30	31	32
9	1	33	34	35	36
10	1	37	38	39	40
11	1	41	42	43	44
12	1	45	46	47	48
13	1	49	50	51	52
14	1	53	54	55	56
15	1	57	58	59	60
16	1	61	62	63	64
17	1	65	66	67	68
18	1	69	70	71	72
19	1	73	74	75	76
20	1	77	78	79	80
21	1	81	82	83	84
22	1	85	86	87	88
23	1	89	90	91	92
24	1	93	94	95	96
25	1	97	98	99	100
26	1	101	102	103	104
27	1	105	106	107	108
28	1	109	110	111	112
29	1	113	114	115	116
30	1	117	118	119	120
31	1	121	122	123	124
32	1	125	126	127	128
33	1	129	130	131	132