# data file for 100 EtOCS precursors with porosity capabilities 
-4 54 xlo xhi
-4 54 ylo yhi
-4 54 zlo zhi

800 atoms
300 bonds
200 angles
100 dihedrals

3 atom types
3 bond types
1 angle types
11 dihedral types

Masses

	1	28
	2	16
	3	12

Angle Coeffs

	1	3.38	109.5185

Bond Coeffs

	1	20	1.9000
	2	20	1.5384
	3	20	1.5227

Dihedral Coeffs

	1	opls	0.3750	-0.2000	0.6250	-0.1000
	2	opls	0.0179	-0.0075	0.0613	-0.0025
	3	opls	0.0169	-0.0034	0.0596	-0.0029
	4	opls	0.0061	-0.0064	0.0680	-0.0032
	5	opls	5.1866	-0.7573	0.1955	-0.0484
	6	opls	0.0865	-0.0347	0.1369	0.0009
	7	opls	0.0260	-0.0152	0.0313	-0.0022
	8	class2	0.0035	180.0000	0.0027	180.0000	0.0293	0.0000
	9	class2	0.0000	0.0000	0.0107	180.0000	0.0000	0.0000
	10	class2	5.5263	0.0000	0.0530	-180.0000	-0.4549	0.0000
	11	class2	-0.0021	180.0000	0.0068	-180.0000	0.0249	180.0000

MiddleBondTorsion Coeffs

	1	opls
	2	opls
	3	opls
	4	opls
	5	opls
	6	opls
	7	opls
	8	class2	0	0	0	0
	9	class2	0	0	0	0
	10	class2	0	0	0	0
	11	class2	0	0	0	0

EndBondTorsion Coeffs

	1	opls
	2	opls
	3	opls
	4	opls
	5	opls
	6	opls
	7	opls
	8	class2	0	0	0	0	0	0	0	0
	9	class2	0	0	0	0	0	0	0	0
	10	class2	0	0	0	0	0	0	0	0
	11	class2	0	0	0	0	0	0	0	0

AngleTorsion Coeffs

	1	opls
	2	opls
	3	opls
	4	opls
	5	opls
	6	opls
	7	opls
	8	class2	0	0	0	0	0	0	0	0
	9	class2	0	0	0	0	0	0	0	0
	10	class2	0	0	0	0	0	0	0	0
	11	class2	0	0	0	0	0	0	0	0

AngleAngleTorsion Coeffs

	1	opls
	2	opls
	3	opls
	4	opls
	5	opls
	6	opls
	7	opls
	8	class2	0	0	0
	9	class2	0	0	0
	10	class2	0	0	0
	11	class2	0	0	0

BondBond13 Coeffs

	1	opls
	2	opls
	3	opls
	4	opls
	5	opls
	6	opls
	7	opls
	8	class2	0	0	0
	9	class2	0	0	0
	10	class2	0	0	0
	11	class2	0	0	0

Atoms

1	1	1	4	34.9483	11.8880	36.5022
2	1	3	0	34.9483	11.8880	38.4022
3	1	3	0	34.9483	13.3380	38.9162
4	1	1	4	34.9483	13.3380	40.8162
5	2	1	4	26.9429	16.0406	14.4776
6	2	3	0	26.9429	16.0406	16.3776
7	2	3	0	26.9429	17.4906	16.8916
8	2	1	4	26.9429	17.4906	18.7916
9	3	1	4	43.7009	19.6048	30.8245
10	3	3	0	43.7009	19.6048	32.7245
11	3	3	0	43.7009	21.0548	33.2385
12	3	1	4	43.7009	21.0548	35.1385
13	4	1	4	13.5714	4.4388	31.6768
14	4	3	0	13.5714	4.4388	33.5768
15	4	3	0	13.5714	5.8888	34.0908
16	4	1	4	13.5714	5.8888	35.9908
17	5	1	4	8.6421	12.4206	1.9863
18	5	3	0	8.6421	12.4206	3.8863
19	5	3	0	8.6421	13.8706	4.4003
20	5	1	4	8.6421	13.8706	6.3003
21	6	1	4	41.1004	28.2264	31.4954
22	6	3	0	41.1004	28.2264	33.3954
23	6	3	0	41.1004	29.6764	33.9094
24	6	1	4	41.1004	29.6764	35.8094
25	7	1	4	25.0268	11.6968	42.9969
26	7	3	0	25.0268	11.6968	44.8969
27	7	3	0	25.0268	13.1468	45.4109
28	7	1	4	25.0268	13.1468	47.3109
29	8	1	4	20.7044	15.5567	2.4932
30	8	3	0	20.7044	15.5567	4.3932
31	8	3	0	20.7044	17.0067	4.9072
32	8	1	4	20.7044	17.0067	6.8072
33	9	1	4	23.9381	0.9980	1.4549
34	9	3	0	23.9381	0.9980	3.3549
35	9	3	0	23.9381	2.4480	3.8689
36	9	1	4	23.9381	2.4480	5.7689
37	10	1	4	20.3928	40.1903	38.4117
38	10	3	0	20.3928	40.1903	40.3117
39	10	3	0	20.3928	41.6403	40.8257
40	10	1	4	20.3928	41.6403	42.7257
41	11	1	4	29.9894	15.0739	7.8047
42	11	3	0	29.9894	15.0739	9.7047
43	11	3	0	29.9894	16.5239	10.2187
44	11	1	4	29.9894	16.5239	12.1187
45	12	1	4	41.8539	40.5883	6.2063
46	12	3	0	41.8539	40.5883	8.1063
47	12	3	0	41.8539	42.0383	8.6203
48	12	1	4	41.8539	42.0383	10.5203
49	13	1	4	1.9771	34.2297	25.7318
50	13	3	0	1.9771	34.2297	27.6318
51	13	3	0	1.9771	35.6797	28.1458
52	13	1	4	1.9771	35.6797	30.0458
53	14	1	4	22.1478	13.3061	13.4418
54	14	3	0	22.1478	13.3061	15.3418
55	14	3	0	22.1478	14.7561	15.8558
56	14	1	4	22.1478	14.7561	17.7558
57	15	1	4	38.1681	12.5948	36.2955
58	15	3	0	38.1681	12.5948	38.1955
59	15	3	0	38.1681	14.0448	38.7095
60	15	1	4	38.1681	14.0448	40.6095
61	16	1	4	2.3531	16.6933	16.2710
62	16	3	0	2.3531	16.6933	18.1710
63	16	3	0	2.3531	18.1433	18.6850
64	16	1	4	2.3531	18.1433	20.5850
65	17	1	4	26.9232	27.5239	36.6010
66	17	3	0	26.9232	27.5239	38.5010
67	17	3	0	26.9232	28.9739	39.0150
68	17	1	4	26.9232	28.9739	40.9150
69	18	1	4	12.1876	45.4371	9.8436
70	18	3	0	12.1876	45.4371	11.7436
71	18	3	0	12.1876	46.8871	12.2576
72	18	1	4	12.1876	46.8871	14.1576
73	19	1	4	37.9938	21.9199	4.3220
74	19	3	0	37.9938	21.9199	6.2220
75	19	3	0	37.9938	23.3699	6.7360
76	19	1	4	37.9938	23.3699	8.6360
77	20	1	4	19.6212	0.9629	34.2918
78	20	3	0	19.6212	0.9629	36.1918
79	20	3	0	19.6212	2.4129	36.7058
80	20	1	4	19.6212	2.4129	38.6058
81	21	1	4	37.0010	11.2127	35.7160
82	21	3	0	37.0010	11.2127	37.6160
83	21	3	0	37.0010	12.6627	38.1300
84	21	1	4	37.0010	12.6627	40.0300
85	22	1	4	30.8664	15.5138	40.4014
86	22	3	0	30.8664	15.5138	42.3014
87	22	3	0	30.8664	16.9638	42.8154
88	22	1	4	30.8664	16.9638	44.7154
89	23	1	4	42.3058	24.0051	8.1607
90	23	3	0	42.3058	24.0051	10.0607
91	23	3	0	42.3058	25.4551	10.5747
92	23	1	4	42.3058	25.4551	12.4747
93	24	1	4	18.4297	26.8947	35.2794
94	24	3	0	18.4297	26.8947	37.1794
95	24	3	0	18.4297	28.3447	37.6934
96	24	1	4	18.4297	28.3447	39.5934
97	25	1	4	45.2398	9.7413	13.2701
98	25	3	0	45.2398	9.7413	15.1701
99	25	3	0	45.2398	11.1913	15.6841
100	25	1	4	45.2398	11.1913	17.5841
101	26	1	4	33.5214	2.3850	4.1289
102	26	3	0	33.5214	2.3850	6.0289
103	26	3	0	33.5214	3.8350	6.5429
104	26	1	4	33.5214	3.8350	8.4429
105	27	1	4	38.8935	35.1023	41.5479
106	27	3	0	38.8935	35.1023	43.4479
107	27	3	0	38.8935	36.5523	43.9619
108	27	1	4	38.8935	36.5523	45.8619
109	28	1	4	37.9420	33.6715	21.8096
110	28	3	0	37.9420	33.6715	23.7096
111	28	3	0	37.9420	35.1215	24.2236
112	28	1	4	37.9420	35.1215	26.1236
113	29	1	4	43.1609	16.7335	33.4583
114	29	3	0	43.1609	16.7335	35.3583
115	29	3	0	43.1609	18.1835	35.8723
116	29	1	4	43.1609	18.1835	37.7723
117	30	1	4	18.8316	44.9237	29.4082
118	30	3	0	18.8316	44.9237	31.3082
119	30	3	0	18.8316	46.3737	31.8222
120	30	1	4	18.8316	46.3737	33.7222
121	31	1	4	19.4901	24.1661	14.3216
122	31	3	0	19.4901	24.1661	16.2216
123	31	3	0	19.4901	25.6161	16.7356
124	31	1	4	19.4901	25.6161	18.6356
125	32	1	4	10.4186	5.7055	12.9144
126	32	3	0	10.4186	5.7055	14.8144
127	32	3	0	10.4186	7.1555	15.3284
128	32	1	4	10.4186	7.1555	17.2284
129	33	1	4	24.8359	24.8705	44.6581
130	33	3	0	24.8359	24.8705	46.5581
131	33	3	0	24.8359	26.3205	47.0721
132	33	1	4	24.8359	26.3205	48.9721
133	34	1	4	28.1939	13.2600	42.5428
134	34	3	0	28.1939	13.2600	44.4428
135	34	3	0	28.1939	14.7100	44.9568
136	34	1	4	28.1939	14.7100	46.8568
137	35	1	4	16.7865	15.1278	17.6613
138	35	3	0	16.7865	15.1278	19.5613
139	35	3	0	16.7865	16.5778	20.0753
140	35	1	4	16.7865	16.5778	21.9753
141	36	1	4	39.3072	18.3404	1.2585
142	36	3	0	39.3072	18.3404	3.1585
143	36	3	0	39.3072	19.7904	3.6725
144	36	1	4	39.3072	19.7904	5.5725
145	37	1	4	41.8801	18.6489	21.3486
146	37	3	0	41.8801	18.6489	23.2486
147	37	3	0	41.8801	20.0989	23.7626
148	37	1	4	41.8801	20.0989	25.6626
149	38	1	4	8.8775	0.0314	6.4807
150	38	3	0	8.8775	0.0314	8.3807
151	38	3	0	8.8775	1.4814	8.8947
152	38	1	4	8.8775	1.4814	10.7947
153	39	1	4	39.8936	15.5956	40.9824
154	39	3	0	39.8936	15.5956	42.8824
155	39	3	0	39.8936	17.0456	43.3964
156	39	1	4	39.8936	17.0456	45.2964
157	40	1	4	21.0306	40.5201	35.3262
158	40	3	0	21.0306	40.5201	37.2262
159	40	3	0	21.0306	41.9701	37.7402
160	40	1	4	21.0306	41.9701	39.6402
161	41	1	4	15.8922	19.8764	44.7143
162	41	3	0	15.8922	19.8764	46.6143
163	41	3	0	15.8922	21.3264	47.1283
164	41	1	4	15.8922	21.3264	49.0283
165	42	1	4	22.0104	8.9908	22.9442
166	42	3	0	22.0104	8.9908	24.8442
167	42	3	0	22.0104	10.4408	25.3582
168	42	1	4	22.0104	10.4408	27.2582
169	43	1	4	14.9063	8.1465	30.1399
170	43	3	0	14.9063	8.1465	32.0399
171	43	3	0	14.9063	9.5965	32.5539
172	43	1	4	14.9063	9.5965	34.4539
173	44	1	4	8.8541	34.9259	12.0955
174	44	3	0	8.8541	34.9259	13.9955
175	44	3	0	8.8541	36.3759	14.5095
176	44	1	4	8.8541	36.3759	16.4095
177	45	1	4	23.2243	12.4651	45.4007
178	45	3	0	23.2243	12.4651	47.3007
179	45	3	0	23.2243	13.9151	47.8147
180	45	1	4	23.2243	13.9151	49.7147
181	46	1	4	39.4002	2.5574	21.0688
182	46	3	0	39.4002	2.5574	22.9688
183	46	3	0	39.4002	4.0074	23.4828
184	46	1	4	39.4002	4.0074	25.3828
185	47	1	4	35.8681	40.8538	17.6610
186	47	3	0	35.8681	40.8538	19.5610
187	47	3	0	35.8681	42.3038	20.0750
188	47	1	4	35.8681	42.3038	21.9750
189	48	1	4	36.1734	36.6880	43.0821
190	48	3	0	36.1734	36.6880	44.9821
191	48	3	0	36.1734	38.1380	45.4961
192	48	1	4	36.1734	38.1380	47.3961
193	49	1	4	1.3152	14.6338	2.3510
194	49	3	0	1.3152	14.6338	4.2510
195	49	3	0	1.3152	16.0838	4.7650
196	49	1	4	1.3152	16.0838	6.6650
197	50	1	4	8.4500	27.5853	39.6690
198	50	3	0	8.4500	27.5853	41.5690
199	50	3	0	8.4500	29.0353	42.0830
200	50	1	4	8.4500	29.0353	43.9830
201	51	1	4	37.2938	10.0431	9.8792
202	51	3	0	37.2938	10.0431	11.7792
203	51	3	0	37.2938	11.4931	12.2932
204	51	1	4	37.2938	11.4931	14.1932
205	52	1	4	3.2261	14.0761	30.0777
206	52	3	0	3.2261	14.0761	31.9777
207	52	3	0	3.2261	15.5261	32.4917
208	52	1	4	3.2261	15.5261	34.3917
209	53	1	4	10.2087	34.8366	36.9848
210	53	3	0	10.2087	34.8366	38.8848
211	53	3	0	10.2087	36.2866	39.3988
212	53	1	4	10.2087	36.2866	41.2988
213	54	1	4	13.8140	6.5640	31.8737
214	54	3	0	13.8140	6.5640	33.7737
215	54	3	0	13.8140	8.0140	34.2877
216	54	1	4	13.8140	8.0140	36.1877
217	55	1	4	33.1141	43.3153	45.5130
218	55	3	0	33.1141	43.3153	47.4130
219	55	3	0	33.1141	44.7653	47.9270
220	55	1	4	33.1141	44.7653	49.8270
221	56	1	4	4.3279	9.8395	18.7207
222	56	3	0	4.3279	9.8395	20.6207
223	56	3	0	4.3279	11.2895	21.1347
224	56	1	4	4.3279	11.2895	23.0347
225	57	1	4	25.6130	16.6119	33.3182
226	57	3	0	25.6130	16.6119	35.2182
227	57	3	0	25.6130	18.0619	35.7322
228	57	1	4	25.6130	18.0619	37.6322
229	58	1	4	0.3107	32.2815	11.5359
230	58	3	0	0.3107	32.2815	13.4359
231	58	3	0	0.3107	33.7315	13.9499
232	58	1	4	0.3107	33.7315	15.8499
233	59	1	4	31.1508	23.6340	1.3797
234	59	3	0	31.1508	23.6340	3.2797
235	59	3	0	31.1508	25.0840	3.7937
236	59	1	4	31.1508	25.0840	5.6937
237	60	1	4	34.0175	24.1988	29.7383
238	60	3	0	34.0175	24.1988	31.6383
239	60	3	0	34.0175	25.6488	32.1523
240	60	1	4	34.0175	25.6488	34.0523
241	61	1	4	18.6120	1.2921	8.7702
242	61	3	0	18.6120	1.2921	10.6702
243	61	3	0	18.6120	2.7421	11.1842
244	61	1	4	18.6120	2.7421	13.0842
245	62	1	4	26.9375	17.1026	10.9190
246	62	3	0	26.9375	17.1026	12.8190
247	62	3	0	26.9375	18.5526	13.3330
248	62	1	4	26.9375	18.5526	15.2330
249	63	1	4	24.8465	14.0865	21.5877
250	63	3	0	24.8465	14.0865	23.4877
251	63	3	0	24.8465	15.5365	24.0017
252	63	1	4	24.8465	15.5365	25.9017
253	64	1	4	6.7006	43.6500	21.8855
254	64	3	0	6.7006	43.6500	23.7855
255	64	3	0	6.7006	45.1000	24.2995
256	64	1	4	6.7006	45.1000	26.1995
257	65	1	4	4.4629	5.0667	35.8724
258	65	3	0	4.4629	5.0667	37.7724
259	65	3	0	4.4629	6.5167	38.2864
260	65	1	4	4.4629	6.5167	40.1864
261	66	1	4	18.6662	5.1990	41.7406
262	66	3	0	18.6662	5.1990	43.6406
263	66	3	0	18.6662	6.6490	44.1546
264	66	1	4	18.6662	6.6490	46.0546
265	67	1	4	12.5997	2.7458	14.7747
266	67	3	0	12.5997	2.7458	16.6747
267	67	3	0	12.5997	4.1958	17.1887
268	67	1	4	12.5997	4.1958	19.0887
269	68	1	4	8.1179	36.7221	41.7008
270	68	3	0	8.1179	36.7221	43.6008
271	68	3	0	8.1179	38.1721	44.1148
272	68	1	4	8.1179	38.1721	46.0148
273	69	1	4	20.2791	26.5796	18.3041
274	69	3	0	20.2791	26.5796	20.2041
275	69	3	0	20.2791	28.0296	20.7181
276	69	1	4	20.2791	28.0296	22.6181
277	70	1	4	7.9599	45.4628	42.1386
278	70	3	0	7.9599	45.4628	44.0386
279	70	3	0	7.9599	46.9128	44.5526
280	70	1	4	7.9599	46.9128	46.4526
281	71	1	4	42.5249	37.5855	11.3199
282	71	3	0	42.5249	37.5855	13.2199
283	71	3	0	42.5249	39.0355	13.7339
284	71	1	4	42.5249	39.0355	15.6339
285	72	1	4	10.3604	8.0846	32.4293
286	72	3	0	10.3604	8.0846	34.3293
287	72	3	0	10.3604	9.5346	34.8433
288	72	1	4	10.3604	9.5346	36.7433
289	73	1	4	28.9379	26.1572	39.1741
290	73	3	0	28.9379	26.1572	41.0741
291	73	3	0	28.9379	27.6072	41.5881
292	73	1	4	28.9379	27.6072	43.4881
293	74	1	4	45.1937	31.9489	33.5949
294	74	3	0	45.1937	31.9489	35.4949
295	74	3	0	45.1937	33.3989	36.0089
296	74	1	4	45.1937	33.3989	37.9089
297	75	1	4	31.9341	21.2993	23.1112
298	75	3	0	31.9341	21.2993	25.0112
299	75	3	0	31.9341	22.7493	25.5252
300	75	1	4	31.9341	22.7493	27.4252
301	76	1	4	11.5608	27.4851	14.4044
302	76	3	0	11.5608	27.4851	16.3044
303	76	3	0	11.5608	28.9351	16.8184
304	76	1	4	11.5608	28.9351	18.7184
305	77	1	4	44.2511	28.4875	41.2302
306	77	3	0	44.2511	28.4875	43.1302
307	77	3	0	44.2511	29.9375	43.6442
308	77	1	4	44.2511	29.9375	45.5442
309	78	1	4	1.4602	31.8959	39.2948
310	78	3	0	1.4602	31.8959	41.1948
311	78	3	0	1.4602	33.3459	41.7088
312	78	1	4	1.4602	33.3459	43.6088
313	79	1	4	14.3770	7.5526	35.2703
314	79	3	0	14.3770	7.5526	37.1703
315	79	3	0	14.3770	9.0026	37.6843
316	79	1	4	14.3770	9.0026	39.5843
317	80	1	4	11.0639	32.0430	23.0420
318	80	3	0	11.0639	32.0430	24.9420
319	80	3	0	11.0639	33.4930	25.4560
320	80	1	4	11.0639	33.4930	27.3560
321	81	1	4	27.8991	33.8172	38.1684
322	81	3	0	27.8991	33.8172	40.0684
323	81	3	0	27.8991	35.2672	40.5824
324	81	1	4	27.8991	35.2672	42.4824
325	82	1	4	39.9772	13.4228	43.1035
326	82	3	0	39.9772	13.4228	45.0035
327	82	3	0	39.9772	14.8728	45.5175
328	82	1	4	39.9772	14.8728	47.4175
329	83	1	4	24.7105	2.7662	1.8665
330	83	3	0	24.7105	2.7662	3.7665
331	83	3	0	24.7105	4.2162	4.2805
332	83	1	4	24.7105	4.2162	6.1805
333	84	1	4	39.8781	27.1018	5.2307
334	84	3	0	39.8781	27.1018	7.1307
335	84	3	0	39.8781	28.5518	7.6447
336	84	1	4	39.8781	28.5518	9.5447
337	85	1	4	44.8731	12.9947	21.2121
338	85	3	0	44.8731	12.9947	23.1121
339	85	3	0	44.8731	14.4447	23.6261
340	85	1	4	44.8731	14.4447	25.5261
341	86	1	4	43.5345	11.7357	38.1148
342	86	3	0	43.5345	11.7357	40.0148
343	86	3	0	43.5345	13.1857	40.5288
344	86	1	4	43.5345	13.1857	42.4288
345	87	1	4	3.9209	7.0159	9.9965
346	87	3	0	3.9209	7.0159	11.8965
347	87	3	0	3.9209	8.4659	12.4105
348	87	1	4	3.9209	8.4659	14.3105
349	88	1	4	0.7845	2.6765	0.8692
350	88	3	0	0.7845	2.6765	2.7692
351	88	3	0	0.7845	4.1265	3.2832
352	88	1	4	0.7845	4.1265	5.1832
353	89	1	4	11.0856	29.8656	1.0725
354	89	3	0	11.0856	29.8656	2.9725
355	89	3	0	11.0856	31.3156	3.4865
356	89	1	4	11.0856	31.3156	5.3865
357	90	1	4	39.3397	13.6589	14.3679
358	90	3	0	39.3397	13.6589	16.2679
359	90	3	0	39.3397	15.1089	16.7819
360	90	1	4	39.3397	15.1089	18.6819
361	91	1	4	12.6632	9.8246	38.8486
362	91	3	0	12.6632	9.8246	40.7486
363	91	3	0	12.6632	11.2746	41.2626
364	91	1	4	12.6632	11.2746	43.1626
365	92	1	4	13.9490	0.3501	32.9643
366	92	3	0	13.9490	0.3501	34.8643
367	92	3	0	13.9490	1.8001	35.3783
368	92	1	4	13.9490	1.8001	37.2783
369	93	1	4	6.8964	16.3051	36.9338
370	93	3	0	6.8964	16.3051	38.8338
371	93	3	0	6.8964	17.7551	39.3478
372	93	1	4	6.8964	17.7551	41.2478
373	94	1	4	11.6407	39.4738	41.6424
374	94	3	0	11.6407	39.4738	43.5424
375	94	3	0	11.6407	40.9238	44.0564
376	94	1	4	11.6407	40.9238	45.9564
377	95	1	4	17.0021	6.2320	34.2072
378	95	3	0	17.0021	6.2320	36.1072
379	95	3	0	17.0021	7.6820	36.6212
380	95	1	4	17.0021	7.6820	38.5212
381	96	1	4	16.6645	30.5380	41.0722
382	96	3	0	16.6645	30.5380	42.9722
383	96	3	0	16.6645	31.9880	43.4862
384	96	1	4	16.6645	31.9880	45.3862
385	97	1	4	32.3472	13.6110	12.0800
386	97	3	0	32.3472	13.6110	13.9800
387	97	3	0	32.3472	15.0610	14.4940
388	97	1	4	32.3472	15.0610	16.3940
389	98	1	4	34.3613	28.1644	40.4189
390	98	3	0	34.3613	28.1644	42.3189
391	98	3	0	34.3613	29.6144	42.8329
392	98	1	4	34.3613	29.6144	44.7329
393	99	1	4	7.4023	7.1843	9.3357
394	99	3	0	7.4023	7.1843	11.2357
395	99	3	0	7.4023	8.6343	11.7497
396	99	1	4	7.4023	8.6343	13.6497
397	100	1	4	34.2136	34.6715	33.5914
398	100	3	0	34.2136	34.6715	35.4914
399	100	3	0	34.2136	36.1215	36.0054
400	100	1	4	34.2136	36.1215	37.9054
401	0	2	-2	37.6880	5.5364	41.1879
402	0	2	-2	44.9350	5.1742	18.9985
403	0	2	-2	16.6528	30.6456	34.5734
404	0	2	-2	10.0412	4.9702	11.1625
405	0	2	-2	8.2926	17.1369	9.2798
406	0	2	-2	30.8155	6.8398	25.6087
407	0	2	-2	9.2293	23.9352	2.3381
408	0	2	-2	28.8329	15.5981	15.3599
409	0	2	-2	1.1652	13.2678	26.0220
410	0	2	-2	19.2491	3.4396	3.2391
411	0	2	-2	8.5354	14.3638	7.3016
412	0	2	-2	28.8593	19.0599	10.1533
413	0	2	-2	30.7380	38.1471	14.3025
414	0	2	-2	31.3326	19.0413	21.3610
415	0	2	-2	3.6804	24.0995	14.0710
416	0	2	-2	8.5552	34.2111	22.0884
417	0	2	-2	1.8610	25.6677	21.2209
418	0	2	-2	24.3740	12.9840	23.2877
419	0	2	-2	34.6927	15.6208	7.6669
420	0	2	-2	35.4264	19.1374	41.0708
421	0	2	-2	21.9724	4.5499	13.9132
422	0	2	-2	32.1653	35.6918	9.5980
423	0	2	-2	32.6886	41.8036	18.2662
424	0	2	-2	14.5836	2.9293	7.0576
425	0	2	-2	1.4228	1.0704	11.3004
426	0	2	-2	18.0969	23.0804	1.9349
427	0	2	-2	43.6727	13.2360	7.2863
428	0	2	-2	9.9971	29.4352	44.5996
429	0	2	-2	10.8682	26.0457	6.9624
430	0	2	-2	27.7600	25.7493	6.1875
431	0	2	-2	0.6883	39.9116	42.3595
432	0	2	-2	30.1103	27.1130	26.7713
433	0	2	-2	22.9777	6.5802	27.5305
434	0	2	-2	21.4088	6.9992	14.8959
435	0	2	-2	44.6536	10.7880	31.7132
436	0	2	-2	29.0964	34.4311	40.7316
437	0	2	-2	22.3163	34.9972	9.0536
438	0	2	-2	35.1871	25.1139	22.3095
439	0	2	-2	4.9307	33.9374	23.8796
440	0	2	-2	38.6475	42.3867	15.3776
441	0	2	-2	14.0822	29.9249	5.4121
442	0	2	-2	45.3042	5.4323	42.6379
443	0	2	-2	24.5742	1.0547	10.1376
444	0	2	-2	43.2917	44.7998	2.2267
445	0	2	-2	40.6168	30.5540	3.7524
446	0	2	-2	14.0385	11.7453	2.6093
447	0	2	-2	4.3338	37.7292	29.9760
448	0	2	-2	10.1832	12.1751	18.0422
449	0	2	-2	44.3229	24.2088	17.0641
450	0	2	-2	4.6067	42.1671	14.9831
451	0	2	-2	15.9175	15.7117	6.9358
452	0	2	-2	12.9018	1.1065	13.0569
453	0	2	-2	23.3107	25.3763	12.7567
454	0	2	-2	1.9376	35.3900	30.7195
455	0	2	-2	3.0461	13.2790	29.5467
456	0	2	-2	12.4642	8.5785	2.6736
457	0	2	-2	17.8499	42.0709	27.6317
458	0	2	-2	25.1025	12.0510	18.7035
459	0	2	-2	43.1809	31.1028	35.7353
460	0	2	-2	30.6121	1.3522	21.5162
461	0	2	-2	44.3084	11.2200	4.7067
462	0	2	-2	25.9898	26.5702	16.8113
463	0	2	-2	35.7541	39.5845	3.2488
464	0	2	-2	29.2980	41.6321	38.5555
465	0	2	-2	2.1512	27.1416	24.9463
466	0	2	-2	29.9954	22.2130	33.8264
467	0	2	-2	36.0168	3.8794	15.7163
468	0	2	-2	28.0494	7.1905	5.5075
469	0	2	-2	11.4118	12.0170	30.8179
470	0	2	-2	29.5508	21.0362	20.3699
471	0	2	-2	44.3306	10.3469	43.8396
472	0	2	-2	17.0510	19.2793	2.5993
473	0	2	-2	33.6776	6.3235	26.0302
474	0	2	-2	9.7962	31.9539	31.2521
475	0	2	-2	35.1708	38.2492	36.7001
476	0	2	-2	45.4723	15.1209	44.1087
477	0	2	-2	26.4248	26.0493	21.3673
478	0	2	-2	6.7197	33.6667	44.4824
479	0	2	-2	7.1943	38.3335	11.2020
480	0	2	-2	43.8782	32.0024	4.6025
481	0	2	-2	27.3429	29.8829	1.3984
482	0	2	-2	35.1430	42.2431	38.6762
483	0	2	-2	25.2022	34.3476	39.5044
484	0	2	-2	9.5459	37.0010	29.1906
485	0	2	-2	0.9736	6.3496	8.3195
486	0	2	-2	21.1989	38.9250	38.8227
487	0	2	-2	41.8732	16.7863	36.0482
488	0	2	-2	43.6476	0.6298	0.2532
489	0	2	-2	34.1762	31.3581	23.7063
490	0	2	-2	25.8037	44.6625	13.2209
491	0	2	-2	15.8281	3.0401	22.1751
492	0	2	-2	16.7057	37.9707	12.1837
493	0	2	-2	12.3734	0.5745	12.1904
494	0	2	-2	4.1749	25.1796	10.7893
495	0	2	-2	37.4704	16.8459	24.7494
496	0	2	-2	26.6053	21.5774	37.8426
497	0	2	-2	4.4426	37.9997	19.0210
498	0	2	-2	7.2268	7.8328	12.5566
499	0	2	-2	31.0647	22.3618	18.3316
500	0	2	-2	42.6037	37.8249	33.8949
501	0	2	-2	24.3650	42.1120	10.0539
502	0	2	-2	18.0352	3.8745	9.2208
503	0	2	-2	13.4056	9.5470	17.1169
504	0	2	-2	20.4773	9.5623	39.2768
505	0	2	-2	2.6021	5.8153	2.9373
506	0	2	-2	25.2453	14.5177	5.3577
507	0	2	-2	20.5169	23.2972	43.7365
508	0	2	-2	31.7704	8.7024	13.0204
509	0	2	-2	39.7702	21.8939	0.7122
510	0	2	-2	2.0790	18.0455	40.7466
511	0	2	-2	14.1168	9.9458	9.9274
512	0	2	-2	3.9876	5.4672	4.5326
513	0	2	-2	8.4653	15.5811	41.0342
514	0	2	-2	1.2938	15.2188	38.8560
515	0	2	-2	41.1036	29.5028	17.0194
516	0	2	-2	3.3648	8.7163	45.0255
517	0	2	-2	42.4250	29.4859	45.6670
518	0	2	-2	30.7731	15.9040	23.7093
519	0	2	-2	15.8061	11.3261	21.1933
520	0	2	-2	0.9128	44.6109	22.8094
521	0	2	-2	28.9448	1.0628	13.4240
522	0	2	-2	27.4716	3.1560	27.8098
523	0	2	-2	39.0435	8.7837	7.2910
524	0	2	-2	14.6213	12.0728	39.7455
525	0	2	-2	2.0159	38.4092	28.8620
526	0	2	-2	17.8514	13.3480	30.2624
527	0	2	-2	15.5240	38.6210	44.4468
528	0	2	-2	18.4454	36.1371	1.4220
529	0	2	-2	19.2939	26.1809	13.3134
530	0	2	-2	4.0235	2.1609	16.9987
531	0	2	-2	9.1255	22.5562	20.6285
532	0	2	-2	45.4886	42.7184	38.6088
533	0	2	-2	22.9811	38.3660	6.3491
534	0	2	-2	17.1665	7.1179	44.4424
535	0	2	-2	14.7459	27.9133	12.6462
536	0	2	-2	32.5889	6.5820	38.0412
537	0	2	-2	34.9535	32.7975	28.3606
538	0	2	-2	31.1696	25.6764	33.4535
539	0	2	-2	23.0607	14.9138	44.4050
540	0	2	-2	22.0068	38.8944	26.8864
541	0	2	-2	44.3311	36.0235	17.7450
542	0	2	-2	18.7038	34.2073	31.5038
543	0	2	-2	38.2934	24.5900	34.5974
544	0	2	-2	43.7879	42.3691	20.7309
545	0	2	-2	31.4578	34.7263	2.7436
546	0	2	-2	10.3532	32.4765	31.5655
547	0	2	-2	20.4204	39.6376	32.2139
548	0	2	-2	11.3077	23.0937	18.6095
549	0	2	-2	14.1685	41.6615	42.0355
550	0	2	-2	14.3453	40.0712	16.3846
551	0	2	-2	22.2820	33.4216	14.4412
552	0	2	-2	30.1787	9.2964	15.1561
553	0	2	-2	43.0433	44.0516	19.2590
554	0	2	-2	27.2709	20.2013	6.2432
555	0	2	-2	13.8298	10.6566	29.8444
556	0	2	-2	33.2418	32.4594	39.1665
557	0	2	-2	38.4949	15.7441	16.9448
558	0	2	-2	45.3032	30.1755	38.1635
559	0	2	-2	16.7709	1.8581	6.7708
560	0	2	-2	42.4255	9.4387	18.2040
561	0	2	-2	26.6942	12.9460	26.6117
562	0	2	-2	10.1855	18.2690	34.2590
563	0	2	-2	35.5021	42.9168	12.9340
564	0	2	-2	44.8595	40.7569	6.1985
565	0	2	-2	40.7904	2.8964	42.4734
566	0	2	-2	21.0531	40.5030	42.9917
567	0	2	-2	35.0728	4.5284	7.6685
568	0	2	-2	35.3348	6.3821	7.5857
569	0	2	-2	21.6229	28.0663	44.4518
570	0	2	-2	40.8234	10.7787	21.4522
571	0	2	-2	33.8592	37.3362	43.3394
572	0	2	-2	45.6923	22.7822	2.4773
573	0	2	-2	24.7782	22.8642	26.9023
574	0	2	-2	9.7187	21.7454	14.0721
575	0	2	-2	14.8178	39.8026	9.1573
576	0	2	-2	5.3015	3.1800	7.5663
577	0	2	-2	38.8954	34.8981	3.0873
578	0	2	-2	44.7455	8.3036	29.1040
579	0	2	-2	22.5494	42.1066	34.0701
580	0	2	-2	26.2282	37.5576	42.1426
581	0	2	-2	41.5751	31.9979	23.6343
582	0	2	-2	22.6363	24.3162	41.1403
583	0	2	-2	25.3623	5.0008	9.7751
584	0	2	-2	5.0270	18.1667	27.3513
585	0	2	-2	40.2114	16.0214	44.3972
586	0	2	-2	5.0189	18.6186	43.5733
587	0	2	-2	9.9501	14.8317	17.8859
588	0	2	-2	8.6247	10.8577	13.5182
589	0	2	-2	39.6597	12.0122	4.3851
590	0	2	-2	27.9714	23.2700	2.8952
591	0	2	-2	19.1876	1.5218	45.2936
592	0	2	-2	12.6977	31.7063	34.9220
593	0	2	-2	29.1718	38.5791	31.9143
594	0	2	-2	28.3763	25.5508	27.5114
595	0	2	-2	9.5386	31.8440	5.3953
596	0	2	-2	13.5268	25.0896	27.5379
597	0	2	-2	40.6999	1.9456	41.5519
598	0	2	-2	21.1313	17.0068	15.7164
599	0	2	-2	20.7764	40.0206	40.4599
600	0	2	-2	10.9555	23.5188	41.2553
601	0	2	-2	41.6553	12.5787	36.5688
602	0	2	-2	29.7279	18.0165	28.3711
603	0	2	-2	34.0367	37.5097	38.6484
604	0	2	-2	18.6210	16.0900	7.3792
605	0	2	-2	4.7264	42.8873	19.1887
606	0	2	-2	38.9194	20.1312	0.2166
607	0	2	-2	15.3068	10.1874	15.2380
608	0	2	-2	2.6590	28.3930	11.1884
609	0	2	-2	23.4173	28.6881	5.2392
610	0	2	-2	42.5900	40.5107	14.2052
611	0	2	-2	33.1922	43.6353	5.6694
612	0	2	-2	2.6544	16.3038	35.4069
613	0	2	-2	24.9558	20.3478	27.0840
614	0	2	-2	44.6439	13.1339	24.8906
615	0	2	-2	36.3517	40.3493	3.5361
616	0	2	-2	28.2136	23.8541	29.3985
617	0	2	-2	21.2104	20.3887	43.3873
618	0	2	-2	41.3593	41.7764	37.3871
619	0	2	-2	1.6988	18.3522	33.7510
620	0	2	-2	39.9038	23.4720	20.8255
621	0	2	-2	31.0027	31.9062	7.0066
622	0	2	-2	40.0326	19.2910	18.2943
623	0	2	-2	28.6703	28.1517	34.9580
624	0	2	-2	28.4119	17.3557	40.1340
625	0	2	-2	24.8639	0.6770	42.4377
626	0	2	-2	38.7139	19.3787	40.0977
627	0	2	-2	7.1415	32.3785	19.1329
628	0	2	-2	19.3582	1.2350	27.4852
629	0	2	-2	39.6791	31.3251	1.4539
630	0	2	-2	32.0141	43.3229	9.2283
631	0	2	-2	32.7465	17.2034	11.7894
632	0	2	-2	41.7870	20.4338	40.4141
633	0	2	-2	38.9727	2.4929	9.4353
634	0	2	-2	0.8381	23.1129	20.2340
635	0	2	-2	42.9076	11.0176	42.7259
636	0	2	-2	32.6862	35.2522	43.7606
637	0	2	-2	35.8901	12.1774	23.7979
638	0	2	-2	31.4493	28.1387	43.4602
639	0	2	-2	25.8072	22.2287	16.3141
640	0	2	-2	2.3801	9.0203	25.2311
641	0	2	-2	30.6917	20.5980	37.8144
642	0	2	-2	33.2375	3.5319	40.5672
643	0	2	-2	42.4146	40.1452	1.3155
644	0	2	-2	34.0918	45.7159	6.2657
645	0	2	-2	31.2831	9.0385	38.6635
646	0	2	-2	18.8931	10.7674	3.2126
647	0	2	-2	21.2177	23.3420	15.6094
648	0	2	-2	43.8877	21.4798	0.8660
649	0	2	-2	27.4406	36.7973	15.8891
650	0	2	-2	6.5770	23.2092	44.4481
651	0	2	-2	12.0262	28.8659	26.7676
652	0	2	-2	43.0752	20.9186	8.8922
653	0	2	-2	10.3446	11.8338	36.8009
654	0	2	-2	12.9027	28.7888	13.2792
655	0	2	-2	25.4470	13.2199	5.9599
656	0	2	-2	34.0822	27.8619	10.7789
657	0	2	-2	30.2660	0.8724	23.8084
658	0	2	-2	3.5356	32.5547	25.4901
659	0	2	-2	1.5176	40.3330	45.1746
660	0	2	-2	31.8143	9.6511	40.5548
661	0	2	-2	10.5953	4.8476	33.0494
662	0	2	-2	24.1574	33.1684	27.9383
663	0	2	-2	7.0899	25.1003	41.8182
664	0	2	-2	10.3624	15.5696	18.8043
665	0	2	-2	39.7389	27.2841	40.4429
666	0	2	-2	14.2934	1.1575	43.7585
667	0	2	-2	3.6745	4.7746	3.8788
668	0	2	-2	20.6224	0.8812	18.1813
669	0	2	-2	32.5343	34.8357	17.6846
670	0	2	-2	32.9927	21.0021	13.2454
671	0	2	-2	6.9595	24.8463	10.6563
672	0	2	-2	28.4286	15.4979	12.1938
673	0	2	-2	31.5877	14.3076	40.1270
674	0	2	-2	45.2776	44.4195	18.0293
675	0	2	-2	22.0519	19.3280	29.1918
676	0	2	-2	24.8322	16.7360	36.9341
677	0	2	-2	41.5479	13.1348	35.5816
678	0	2	-2	10.5055	25.9973	3.9864
679	0	2	-2	1.1419	40.8843	30.3367
680	0	2	-2	32.4357	42.1464	8.5884
681	0	2	-2	13.5462	19.1475	0.8161
682	0	2	-2	17.2371	13.4567	16.1000
683	0	2	-2	18.2083	4.1975	18.4606
684	0	2	-2	16.7825	20.6881	22.0150
685	0	2	-2	23.1029	29.0533	17.0000
686	0	2	-2	0.5204	22.5131	41.8393
687	0	2	-2	28.6794	27.5271	11.0768
688	0	2	-2	14.8252	25.7384	36.1619
689	0	2	-2	38.5805	41.1685	0.7692
690	0	2	-2	32.1793	44.9266	17.9989
691	0	2	-2	17.0884	1.3002	34.2771
692	0	2	-2	2.0672	19.9635	23.6913
693	0	2	-2	20.4639	12.5673	44.9762
694	0	2	-2	7.7498	45.7565	40.1991
695	0	2	-2	4.2972	15.7279	35.5619
696	0	2	-2	37.3775	35.6617	6.9435
697	0	2	-2	1.9907	1.1032	12.5484
698	0	2	-2	0.8011	15.2805	41.3459
699	0	2	-2	5.8703	5.1379	13.2509
700	0	2	-2	23.5703	3.4491	7.7161
701	0	2	-2	45.6447	41.1362	18.6427
702	0	2	-2	31.9082	3.3002	32.8700
703	0	2	-2	26.9003	32.5380	6.6946
704	0	2	-2	4.6350	11.3220	17.0079
705	0	2	-2	9.6747	21.9462	1.4493
706	0	2	-2	27.8710	28.8631	34.2740
707	0	2	-2	29.3485	3.4869	44.5261
708	0	2	-2	26.7154	8.5141	21.3651
709	0	2	-2	40.5895	25.5591	4.2218
710	0	2	-2	4.5413	13.5274	12.8731
711	0	2	-2	12.0034	38.1349	45.4008
712	0	2	-2	29.1327	37.4964	3.2109
713	0	2	-2	24.2864	20.3337	42.3847
714	0	2	-2	44.2990	20.1157	8.3482
715	0	2	-2	36.2434	27.2781	26.4129
716	0	2	-2	13.4032	25.3294	23.6632
717	0	2	-2	32.5870	34.6869	24.9060
718	0	2	-2	19.8944	24.9553	14.5040
719	0	2	-2	42.0491	1.9206	26.3412
720	0	2	-2	6.8929	35.2143	20.5251
721	0	2	-2	0.6738	6.2912	1.8869
722	0	2	-2	40.4470	5.7119	6.8837
723	0	2	-2	33.5908	32.6742	28.3499
724	0	2	-2	33.2114	16.6095	8.9918
725	0	2	-2	16.2865	19.5478	26.3358
726	0	2	-2	42.3370	25.2267	40.0791
727	0	2	-2	6.7943	18.6312	15.2851
728	0	2	-2	40.1421	41.4072	39.9832
729	0	2	-2	18.1370	32.0097	12.5587
730	0	2	-2	12.7828	6.8007	41.5207
731	0	2	-2	10.4762	37.1491	35.4104
732	0	2	-2	41.8406	42.4619	25.6213
733	0	2	-2	35.6033	39.3622	24.3572
734	0	2	-2	13.5216	9.4225	16.8280
735	0	2	-2	18.0406	20.6546	37.9895
736	0	2	-2	28.4718	3.6411	26.0817
737	0	2	-2	0.3357	26.5783	19.5389
738	0	2	-2	5.2272	42.7448	0.5261
739	0	2	-2	19.3189	24.0183	13.8167
740	0	2	-2	21.2517	41.7916	24.3231
741	0	2	-2	15.5118	41.3926	22.3901
742	0	2	-2	27.2033	9.2931	42.0738
743	0	2	-2	29.8524	39.8154	12.7863
744	0	2	-2	9.4264	38.6530	5.6085
745	0	2	-2	9.6528	4.7651	15.3517
746	0	2	-2	6.7545	9.2148	27.1473
747	0	2	-2	10.9580	8.8903	33.8579
748	0	2	-2	23.0357	10.6806	40.4095
749	0	2	-2	37.4356	30.3296	20.8616
750	0	2	-2	35.2998	5.8278	39.8257
751	0	2	-2	42.1054	33.0981	7.5174
752	0	2	-2	20.2485	11.9303	31.8469
753	0	2	-2	27.8187	6.6505	40.9553
754	0	2	-2	3.0413	39.3768	22.3420
755	0	2	-2	33.4921	24.0977	17.3784
756	0	2	-2	20.1152	37.7075	36.4809
757	0	2	-2	27.1516	10.2331	41.3957
758	0	2	-2	42.3043	7.0763	39.4245
759	0	2	-2	32.7646	45.7732	18.5930
760	0	2	-2	15.6640	14.2576	22.1452
761	0	2	-2	40.5041	15.6345	23.5269
762	0	2	-2	34.1011	35.9183	3.5502
763	0	2	-2	30.8690	26.2272	26.4403
764	0	2	-2	2.1210	10.9864	4.1995
765	0	2	-2	32.1777	33.5491	5.0807
766	0	2	-2	10.8336	43.3561	8.4996
767	0	2	-2	30.7320	40.8708	1.5370
768	0	2	-2	19.7929	14.6451	30.9367
769	0	2	-2	12.0140	15.4527	17.1847
770	0	2	-2	17.1056	10.5219	7.7904
771	0	2	-2	35.0737	5.9628	41.0775
772	0	2	-2	25.3416	36.4808	0.1185
773	0	2	-2	24.3364	27.1816	25.8236
774	0	2	-2	8.0281	39.0163	21.0340
775	0	2	-2	35.8801	27.7332	8.7437
776	0	2	-2	29.7535	45.0644	16.3930
777	0	2	-2	18.0641	38.0242	21.7143
778	0	2	-2	5.6487	15.2404	9.1820
779	0	2	-2	5.6243	24.4392	23.5661
780	0	2	-2	1.4452	41.6741	23.8936
781	0	2	-2	35.8483	0.3912	43.1174
782	0	2	-2	13.0326	7.0041	5.6382
783	0	2	-2	7.4503	9.9223	28.2625
784	0	2	-2	16.0725	24.5685	1.3214
785	0	2	-2	40.7547	28.5828	31.4745
786	0	2	-2	28.5216	9.7936	4.8671
787	0	2	-2	24.9229	34.1290	1.6007
788	0	2	-2	35.5075	36.8610	40.4141
789	0	2	-2	42.6878	27.0574	40.3908
790	0	2	-2	13.0803	12.1726	24.0461
791	0	2	-2	43.2512	21.0285	14.5668
792	0	2	-2	10.5392	21.9728	44.0049
793	0	2	-2	34.0433	7.4511	27.0559
794	0	2	-2	6.0860	11.0830	4.0454
795	0	2	-2	37.5929	11.7119	14.0653
796	0	2	-2	21.2535	35.3356	26.4511
797	0	2	-2	31.5306	1.6589	19.5785
798	0	2	-2	43.4374	8.2385	38.5039
799	0	2	-2	14.5627	21.3809	7.3615
800	0	2	-2	33.6511	8.5592	0.4316

Bonds

1	1	1	2
2	2	2	3
3	1	3	4
4	1	5	6
5	2	6	7
6	1	7	8
7	1	9	10
8	2	10	11
9	1	11	12
10	1	13	14
11	2	14	15
12	1	15	16
13	1	17	18
14	2	18	19
15	1	19	20
16	1	21	22
17	2	22	23
18	1	23	24
19	1	25	26
20	2	26	27
21	1	27	28
22	1	29	30
23	2	30	31
24	1	31	32
25	1	33	34
26	2	34	35
27	1	35	36
28	1	37	38
29	2	38	39
30	1	39	40
31	1	41	42
32	2	42	43
33	1	43	44
34	1	45	46
35	2	46	47
36	1	47	48
37	1	49	50
38	2	50	51
39	1	51	52
40	1	53	54
41	2	54	55
42	1	55	56
43	1	57	58
44	2	58	59
45	1	59	60
46	1	61	62
47	2	62	63
48	1	63	64
49	1	65	66
50	2	66	67
51	1	67	68
52	1	69	70
53	2	70	71
54	1	71	72
55	1	73	74
56	2	74	75
57	1	75	76
58	1	77	78
59	2	78	79
60	1	79	80
61	1	81	82
62	2	82	83
63	1	83	84
64	1	85	86
65	2	86	87
66	1	87	88
67	1	89	90
68	2	90	91
69	1	91	92
70	1	93	94
71	2	94	95
72	1	95	96
73	1	97	98
74	2	98	99
75	1	99	100
76	1	101	102
77	2	102	103
78	1	103	104
79	1	105	106
80	2	106	107
81	1	107	108
82	1	109	110
83	2	110	111
84	1	111	112
85	1	113	114
86	2	114	115
87	1	115	116