# data file for 100 EtOCS precursors with porosity capabilities 
-4 50 xlo xhi
-4 50 ylo yhi
-4 50 zlo zhi

600 atoms
300 bonds
200 angles
100 dihedrals

3 atom types
3 bond types
1 angle types
11 dihedral types

Masses

	1	28
	2	16
	3	12

Angle Coeffs

	1	3.38	109.5185

Bond Coeffs

	1	20	1.9000
	2	20	1.5384
	3	20	1.5227

Dihedral Coeffs

	1	opls	0.3750	-0.2000	0.6250	-0.1000
	2	opls	0.0179	-0.0075	0.0613	-0.0025
	3	opls	0.0169	-0.0034	0.0596	-0.0029
	4	opls	0.0061	-0.0064	0.0680	-0.0032
	5	opls	5.1866	-0.7573	0.1955	-0.0484
	6	opls	0.0865	-0.0347	0.1369	0.0009
	7	opls	0.0260	-0.0152	0.0313	-0.0022
	8	class2	0.0035	180.0000	0.0027	180.0000	0.0293	0.0000
	9	class2	0.0000	0.0000	0.0107	180.0000	0.0000	0.0000
	10	class2	5.5263	0.0000	0.0530	-180.0000	-0.4549	0.0000
	11	class2	-0.0021	180.0000	0.0068	-180.0000	0.0249	180.0000

MiddleBondTorsion Coeffs

	1	opls
	2	opls
	3	opls
	4	opls
	5	opls
	6	opls
	7	opls
	8	class2	0	0	0	0
	9	class2	0	0	0	0
	10	class2	0	0	0	0
	11	class2	0	0	0	0

EndBondTorsion Coeffs

	1	opls
	2	opls
	3	opls
	4	opls
	5	opls
	6	opls
	7	opls
	8	class2	0	0	0	0	0	0	0	0
	9	class2	0	0	0	0	0	0	0	0
	10	class2	0	0	0	0	0	0	0	0
	11	class2	0	0	0	0	0	0	0	0

AngleTorsion Coeffs

	1	opls
	2	opls
	3	opls
	4	opls
	5	opls
	6	opls
	7	opls
	8	class2	0	0	0	0	0	0	0	0
	9	class2	0	0	0	0	0	0	0	0
	10	class2	0	0	0	0	0	0	0	0
	11	class2	0	0	0	0	0	0	0	0

AngleAngleTorsion Coeffs

	1	opls
	2	opls
	3	opls
	4	opls
	5	opls
	6	opls
	7	opls
	8	class2	0	0	0
	9	class2	0	0	0
	10	class2	0	0	0
	11	class2	0	0	0

BondBond13 Coeffs

	1	opls
	2	opls
	3	opls
	4	opls
	5	opls
	6	opls
	7	opls
	8	class2	0	0	0
	9	class2	0	0	0
	10	class2	0	0	0
	11	class2	0	0	0

Atoms

1	1	1	4	17.2005	36.9006	0.4782
2	1	3	0	17.2005	36.9006	2.3782
3	1	3	0	17.2005	38.3506	2.8922
4	1	1	4	17.2005	38.3506	4.7922
5	2	1	4	23.7491	33.2512	29.4499
6	2	3	0	23.7491	33.2512	31.3499
7	2	3	0	23.7491	34.7012	31.8639
8	2	1	4	23.7491	34.7012	33.7639
9	3	1	4	20.3248	31.8253	26.0197
10	3	3	0	20.3248	31.8253	27.9197
11	3	3	0	20.3248	33.2753	28.4337
12	3	1	4	20.3248	33.2753	30.3337
13	4	1	4	0.2192	5.5706	9.3803
14	4	3	0	0.2192	5.5706	11.2803
15	4	3	0	0.2192	7.0206	11.7943
16	4	1	4	0.2192	7.0206	13.6943
17	5	1	4	8.3869	24.2292	40.8049
18	5	3	0	8.3869	24.2292	42.7049
19	5	3	0	8.3869	25.6792	43.2189
20	5	1	4	8.3869	25.6792	45.1189
21	6	1	4	22.0854	39.8148	33.8401
22	6	3	0	22.0854	39.8148	35.7401
23	6	3	0	22.0854	41.2648	36.2541
24	6	1	4	22.0854	41.2648	38.1541
25	7	1	4	18.1779	2.9872	39.6822
26	7	3	0	18.1779	2.9872	41.5822
27	7	3	0	18.1779	4.4372	42.0962
28	7	1	4	18.1779	4.4372	43.9962
29	8	1	4	34.1841	13.7993	29.1620
30	8	3	0	34.1841	13.7993	31.0620
31	8	3	0	34.1841	15.2493	31.5760
32	8	1	4	34.1841	15.2493	33.4760
33	9	1	4	19.5322	24.2967	26.8019
34	9	3	0	19.5322	24.2967	28.7019
35	9	3	0	19.5322	25.7467	29.2159
36	9	1	4	19.5322	25.7467	31.1159
37	10	1	4	12.9148	24.4269	14.4177
38	10	3	0	12.9148	24.4269	16.3177
39	10	3	0	12.9148	25.8769	16.8317
40	10	1	4	12.9148	25.8769	18.7317
41	11	1	4	13.6426	5.5405	40.5097
42	11	3	0	13.6426	5.5405	42.4097
43	11	3	0	13.6426	6.9905	42.9237
44	11	1	4	13.6426	6.9905	44.8237
45	12	1	4	19.1034	24.2704	19.8521
46	12	3	0	19.1034	24.2704	21.7521
47	12	3	0	19.1034	25.7204	22.2661
48	12	1	4	19.1034	25.7204	24.1661
49	13	1	4	38.7962	11.8769	24.2581
50	13	3	0	38.7962	11.8769	26.1581
51	13	3	0	38.7962	13.3269	26.6721
52	13	1	4	38.7962	13.3269	28.5721
53	14	1	4	18.3088	34.8081	31.1638
54	14	3	0	18.3088	34.8081	33.0638
55	14	3	0	18.3088	36.2581	33.5778
56	14	1	4	18.3088	36.2581	35.4778
57	15	1	4	29.8417	20.2887	27.9759
58	15	3	0	29.8417	20.2887	29.8759
59	15	3	0	29.8417	21.7387	30.3899
60	15	1	4	29.8417	21.7387	32.2899
61	16	1	4	9.2802	35.9454	31.0635
62	16	3	0	9.2802	35.9454	32.9635
63	16	3	0	9.2802	37.3954	33.4775
64	16	1	4	9.2802	37.3954	35.3775
65	17	1	4	40.4692	8.2315	8.5859
66	17	3	0	40.4692	8.2315	10.4859
67	17	3	0	40.4692	9.6815	10.9999
68	17	1	4	40.4692	9.6815	12.8999
69	18	1	4	31.4368	7.5007	11.3492
70	18	3	0	31.4368	7.5007	13.2492
71	18	3	0	31.4368	8.9507	13.7632
72	18	1	4	31.4368	8.9507	15.6632
73	19	1	4	16.6036	40.7390	36.9121
74	19	3	0	16.6036	40.7390	38.8121
75	19	3	0	16.6036	42.1890	39.3261
76	19	1	4	16.6036	42.1890	41.2261
77	20	1	4	27.2955	36.7451	12.0774
78	20	3	0	27.2955	36.7451	13.9774
79	20	3	0	27.2955	38.1951	14.4914
80	20	1	4	27.2955	38.1951	16.3914
81	21	1	4	23.4832	17.6763	20.8093
82	21	3	0	23.4832	17.6763	22.7093
83	21	3	0	23.4832	19.1263	23.2233
84	21	1	4	23.4832	19.1263	25.1233
85	22	1	4	6.1107	22.2136	26.5715
86	22	3	0	6.1107	22.2136	28.4715
87	22	3	0	6.1107	23.6636	28.9855
88	22	1	4	6.1107	23.6636	30.8855
89	23	1	4	19.0298	1.5794	7.2099
90	23	3	0	19.0298	1.5794	9.1099
91	23	3	0	19.0298	3.0294	9.6239
92	23	1	4	19.0298	3.0294	11.5239
93	24	1	4	33.0932	36.2838	19.0358
94	24	3	0	33.0932	36.2838	20.9358
95	24	3	0	33.0932	37.7338	21.4498
96	24	1	4	33.0932	37.7338	23.3498
97	25	1	4	17.2753	16.0011	40.5199
98	25	3	0	17.2753	16.0011	42.4199
99	25	3	0	17.2753	17.4511	42.9339
100	25	1	4	17.2753	17.4511	44.8339
101	26	1	4	13.4268	28.8827	16.2928
102	26	3	0	13.4268	28.8827	18.1928
103	26	3	0	13.4268	30.3327	18.7068
104	26	1	4	13.4268	30.3327	20.6068
105	27	1	4	17.2210	37.2456	30.7344
106	27	3	0	17.2210	37.2456	32.6344
107	27	3	0	17.2210	38.6956	33.1484
108	27	1	4	17.2210	38.6956	35.0484
109	28	1	4	40.7716	24.0297	26.8690
110	28	3	0	40.7716	24.0297	28.7690
111	28	3	0	40.7716	25.4797	29.2830
112	28	1	4	40.7716	25.4797	31.1830
113	29	1	4	0.2104	38.1492	22.4571
114	29	3	0	0.2104	38.1492	24.3571
115	29	3	0	0.2104	39.5992	24.8711
116	29	1	4	0.2104	39.5992	26.7711
117	30	1	4	15.6965	13.6134	21.9121
118	30	3	0	15.6965	13.6134	23.8121
119	30	3	0	15.6965	15.0634	24.3261
120	30	1	4	15.6965	15.0634	26.2261
121	31	1	4	27.6789	24.3739	35.4847
122	31	3	0	27.6789	24.3739	37.3847
123	31	3	0	27.6789	25.8239	37.8987
124	31	1	4	27.6789	25.8239	39.7987
125	32	1	4	6.0493	1.8234	21.4991
126	32	3	0	6.0493	1.8234	23.3991
127	32	3	0	6.0493	3.2734	23.9131
128	32	1	4	6.0493	3.2734	25.8131
129	33	1	4	34.9624	5.9653	28.5941
130	33	3	0	34.9624	5.9653	30.4941
131	33	3	0	34.9624	7.4153	31.0081
132	33	1	4	34.9624	7.4153	32.9081
133	34	1	4	14.1893	2.3126	8.5357
134	34	3	0	14.1893	2.3126	10.4357
135	34	3	0	14.1893	3.7626	10.9497
136	34	1	4	14.1893	3.7626	12.8497
137	35	1	4	30.4309	24.7874	29.4256
138	35	3	0	30.4309	24.7874	31.3256
139	35	3	0	30.4309	26.2374	31.8396
140	35	1	4	30.4309	26.2374	33.7396
141	36	1	4	19.1566	35.9253	24.1911
142	36	3	0	19.1566	35.9253	26.0911
143	36	3	0	19.1566	37.3753	26.6051
144	36	1	4	19.1566	37.3753	28.5051
145	37	1	4	22.4565	37.3458	5.1157
146	37	3	0	22.4565	37.3458	7.0157
147	37	3	0	22.4565	38.7958	7.5297
148	37	1	4	22.4565	38.7958	9.4297
149	38	1	4	11.2450	7.5324	16.0152
150	38	3	0	11.2450	7.5324	17.9152
151	38	3	0	11.2450	8.9824	18.4292
152	38	1	4	11.2450	8.9824	20.3292
153	39	1	4	22.5845	34.8945	40.5557
154	39	3	0	22.5845	34.8945	42.4557
155	39	3	0	22.5845	36.3445	42.9697
156	39	1	4	22.5845	36.3445	44.8697
157	40	1	4	38.3897	23.2445	13.5617
158	40	3	0	38.3897	23.2445	15.4617
159	40	3	0	38.3897	24.6945	15.9757
160	40	1	4	38.3897	24.6945	17.8757
161	41	1	4	37.8785	27.3021	41.4382
162	41	3	0	37.8785	27.3021	43.3382
163	41	3	0	37.8785	28.7521	43.8522
164	41	1	4	37.8785	28.7521	45.7522
165	42	1	4	38.0910	10.3698	36.6861
166	42	3	0	38.0910	10.3698	38.5861
167	42	3	0	38.0910	11.8198	39.1001
168	42	1	4	38.0910	11.8198	41.0001
169	43	1	4	33.7790	29.0720	22.4143
170	43	3	0	33.7790	29.0720	24.3143
171	43	3	0	33.7790	30.5220	24.8283
172	43	1	4	33.7790	30.5220	26.7283
173	44	1	4	15.1090	16.0249	37.5885
174	44	3	0	15.1090	16.0249	39.4885
175	44	3	0	15.1090	17.4749	40.0025
176	44	1	4	15.1090	17.4749	41.9025
177	45	1	4	40.8512	25.0411	14.2095
178	45	3	0	40.8512	25.0411	16.1095
179	45	3	0	40.8512	26.4911	16.6235
180	45	1	4	40.8512	26.4911	18.5235
181	46	1	4	23.5081	23.3086	14.2059
182	46	3	0	23.5081	23.3086	16.1059
183	46	3	0	23.5081	24.7586	16.6199
184	46	1	4	23.5081	24.7586	18.5199
185	47	1	4	3.5734	20.9813	8.9738
186	47	3	0	3.5734	20.9813	10.8738
187	47	3	0	3.5734	22.4313	11.3878
188	47	1	4	3.5734	22.4313	13.2878
189	48	1	4	0.1777	7.0476	25.1973
190	48	3	0	0.1777	7.0476	27.0973
191	48	3	0	0.1777	8.4976	27.6113
192	48	1	4	0.1777	8.4976	29.5113
193	49	1	4	6.3610	31.2619	6.8644
194	49	3	0	6.3610	31.2619	8.7644
195	49	3	0	6.3610	32.7119	9.2784
196	49	1	4	6.3610	32.7119	11.1784
197	50	1	4	27.1772	17.0383	2.8179
198	50	3	0	27.1772	17.0383	4.7179
199	50	3	0	27.1772	18.4883	5.2319
200	50	1	4	27.1772	18.4883	7.1319
201	51	1	4	37.6742	12.3622	25.0900
202	51	3	0	37.6742	12.3622	26.9900
203	51	3	0	37.6742	13.8122	27.5040
204	51	1	4	37.6742	13.8122	29.4040
205	52	1	4	8.0879	38.7964	6.3531
206	52	3	0	8.0879	38.7964	8.2531
207	52	3	0	8.0879	40.2464	8.7671
208	52	1	4	8.0879	40.2464	10.6671
209	53	1	4	36.1768	5.4922	2.6640
210	53	3	0	36.1768	5.4922	4.5640
211	53	3	0	36.1768	6.9422	5.0780
212	53	1	4	36.1768	6.9422	6.9780
213	54	1	4	5.9141	18.9461	20.5106
214	54	3	0	5.9141	18.9461	22.4106
215	54	3	0	5.9141	20.3961	22.9246
216	54	1	4	5.9141	20.3961	24.8246
217	55	1	4	29.0049	39.4857	33.1012
218	55	3	0	29.0049	39.4857	35.0012
219	55	3	0	29.0049	40.9357	35.5152
220	55	1	4	29.0049	40.9357	37.4152
221	56	1	4	18.9900	30.2017	35.6705
222	56	3	0	18.9900	30.2017	37.5705
223	56	3	0	18.9900	31.6517	38.0845
224	56	1	4	18.9900	31.6517	39.9845
225	57	1	4	34.8499	8.6281	18.6022
226	57	3	0	34.8499	8.6281	20.5022
227	57	3	0	34.8499	10.0781	21.0162
228	57	1	4	34.8499	10.0781	22.9162
229	58	1	4	20.4893	32.3498	36.1099
230	58	3	0	20.4893	32.3498	38.0099
231	58	3	0	20.4893	33.7998	38.5239
232	58	1	4	20.4893	33.7998	40.4239
233	59	1	4	35.3972	14.9369	3.4001
234	59	3	0	35.3972	14.9369	5.3001
235	59	3	0	35.3972	16.3869	5.8141
236	59	1	4	35.3972	16.3869	7.7141
237	60	1	4	11.6714	34.7894	20.8193
238	60	3	0	11.6714	34.7894	22.7193
239	60	3	0	11.6714	36.2394	23.2333
240	60	1	4	11.6714	36.2394	25.1333
241	61	1	4	13.7684	11.8866	39.8801
242	61	3	0	13.7684	11.8866	41.7801
243	61	3	0	13.7684	13.3366	42.2941
244	61	1	4	13.7684	13.3366	44.1941
245	62	1	4	37.1228	7.9582	27.4634
246	62	3	0	37.1228	7.9582	29.3634
247	62	3	0	37.1228	9.4082	29.8774
248	62	1	4	37.1228	9.4082	31.7774
249	63	1	4	21.9497	3.0619	35.9970
250	63	3	0	21.9497	3.0619	37.8970
251	63	3	0	21.9497	4.5119	38.4110
252	63	1	4	21.9497	4.5119	40.3110
253	64	1	4	37.7118	37.5403	6.3894
254	64	3	0	37.7118	37.5403	8.2894
255	64	3	0	37.7118	38.9903	8.8034
256	64	1	4	37.7118	38.9903	10.7034
257	65	1	4	33.2365	7.8117	37.7361
258	65	3	0	33.2365	7.8117	39.6361
259	65	3	0	33.2365	9.2617	40.1501
260	65	1	4	33.2365	9.2617	42.0501
261	66	1	4	16.0820	16.7367	40.7696
262	66	3	0	16.0820	16.7367	42.6696
263	66	3	0	16.0820	18.1867	43.1836
264	66	1	4	16.0820	18.1867	45.0836
265	67	1	4	3.9887	14.0642	18.3698
266	67	3	0	3.9887	14.0642	20.2698
267	67	3	0	3.9887	15.5142	20.7838
268	67	1	4	3.9887	15.5142	22.6838
269	68	1	4	22.7274	9.8878	22.2393
270	68	3	0	22.7274	9.8878	24.1393
271	68	3	0	22.7274	11.3378	24.6533
272	68	1	4	22.7274	11.3378	26.5533
273	69	1	4	25.4359	12.9738	28.7851
274	69	3	0	25.4359	12.9738	30.6851
275	69	3	0	25.4359	14.4238	31.1991
276	69	1	4	25.4359	14.4238	33.0991
277	70	1	4	4.9522	8.7026	9.1156
278	70	3	0	4.9522	8.7026	11.0156
279	70	3	0	4.9522	10.1526	11.5296
280	70	1	4	4.9522	10.1526	13.4296
281	71	1	4	34.2064	16.3788	31.9313
282	71	3	0	34.2064	16.3788	33.8313
283	71	3	0	34.2064	17.8288	34.3453
284	71	1	4	34.2064	17.8288	36.2453
285	72	1	4	12.7689	39.2338	21.2427
286	72	3	0	12.7689	39.2338	23.1427
287	72	3	0	12.7689	40.6838	23.6567
288	72	1	4	12.7689	40.6838	25.5567
289	73	1	4	39.7571	1.8251	10.6095
290	73	3	0	39.7571	1.8251	12.5095
291	73	3	0	39.7571	3.2751	13.0235
292	73	1	4	39.7571	3.2751	14.9235
293	74	1	4	34.1736	9.7351	25.9537
294	74	3	0	34.1736	9.7351	27.8537
295	74	3	0	34.1736	11.1851	28.3677
296	74	1	4	34.1736	11.1851	30.2677
297	75	1	4	8.7720	33.6590	33.2417
298	75	3	0	8.7720	33.6590	35.1417
299	75	3	0	8.7720	35.1090	35.6557
300	75	1	4	8.7720	35.1090	37.5557
301	76	1	4	4.8457	36.2556	7.2179
302	76	3	0	4.8457	36.2556	9.1179
303	76	3	0	4.8457	37.7056	9.6319
304	76	1	4	4.8457	37.7056	11.5319
305	77	1	4	34.4197	18.4496	4.6103
306	77	3	0	34.4197	18.4496	6.5103
307	77	3	0	34.4197	19.8996	7.0243
308	77	1	4	34.4197	19.8996	8.9243
309	78	1	4	6.1185	16.0891	10.7560
310	78	3	0	6.1185	16.0891	12.6560
311	78	3	0	6.1185	17.5391	13.1700
312	78	1	4	6.1185	17.5391	15.0700
313	79	1	4	17.1411	16.5019	22.2568
314	79	3	0	17.1411	16.5019	24.1568
315	79	3	0	17.1411	17.9519	24.6708
316	79	1	4	17.1411	17.9519	26.5708
317	80	1	4	4.8683	40.5593	6.4271
318	80	3	0	4.8683	40.5593	8.3271
319	80	3	0	4.8683	42.0093	8.8411
320	80	1	4	4.8683	42.0093	10.7411
321	81	1	4	17.7358	10.7282	8.8032
322	81	3	0	17.7358	10.7282	10.7032
323	81	3	0	17.7358	12.1782	11.2172
324	81	1	4	17.7358	12.1782	13.1172
325	82	1	4	2.4612	15.5879	37.3993
326	82	3	0	2.4612	15.5879	39.2993
327	82	3	0	2.4612	17.0379	39.8133
328	82	1	4	2.4612	17.0379	41.7133
329	83	1	4	24.7456	4.8793	38.5119
330	83	3	0	24.7456	4.8793	40.4119
331	83	3	0	24.7456	6.3293	40.9259
332	83	1	4	24.7456	6.3293	42.8259
333	84	1	4	15.8123	33.9431	5.6170
334	84	3	0	15.8123	33.9431	7.5170
335	84	3	0	15.8123	35.3931	8.0310
336	84	1	4	15.8123	35.3931	9.9310
337	85	1	4	41.2078	5.8213	37.0370
338	85	3	0	41.2078	5.8213	38.9370
339	85	3	0	41.2078	7.2713	39.4510
340	85	1	4	41.2078	7.2713	41.3510
341	86	1	4	25.8706	8.6243	4.4573
342	86	3	0	25.8706	8.6243	6.3573
343	86	3	0	25.8706	10.0743	6.8713
344	86	1	4	25.8706	10.0743	8.7713
345	87	1	4	35.6735	21.9983	22.0429
346	87	3	0	35.6735	21.9983	23.9429
347	87	3	0	35.6735	23.4483	24.4569
348	87	1	4	35.6735	23.4483	26.3569
349	88	1	4	39.5689	33.8229	19.0608
350	88	3	0	39.5689	33.8229	20.9608
351	88	3	0	39.5689	35.2729	21.4748
352	88	1	4	39.5689	35.2729	23.3748
353	89	1	4	12.7616	28.9692	1.5972
354	89	3	0	12.7616	28.9692	3.4972
355	89	3	0	12.7616	30.4192	4.0112
356	89	1	4	12.7616	30.4192	5.9112
357	90	1	4	34.9967	1.2785	21.9205
358	90	3	0	34.9967	1.2785	23.8205
359	90	3	0	34.9967	2.7285	24.3345
360	90	1	4	34.9967	2.7285	26.2345
361	91	1	4	21.6352	4.4202	31.4554
362	91	3	0	21.6352	4.4202	33.3554
363	91	3	0	21.6352	5.8702	33.8694
364	91	1	4	21.6352	5.8702	35.7694
365	92	1	4	38.1086	20.6854	4.8677
366	92	3	0	38.1086	20.6854	6.7677
367	92	3	0	38.1086	22.1354	7.2817
368	92	1	4	38.1086	22.1354	9.1817
369	93	1	4	28.5604	26.5515	21.6270
370	93	3	0	28.5604	26.5515	23.5270
371	93	3	0	28.5604	28.0015	24.0410
372	93	1	4	28.5604	28.0015	25.9410
373	94	1	4	4.4873	29.3619	5.0256
374	94	3	0	4.4873	29.3619	6.9256
375	94	3	0	4.4873	30.8119	7.4396
376	94	1	4	4.4873	30.8119	9.3396
377	95	1	4	7.5848	26.7801	38.3350
378	95	3	0	7.5848	26.7801	40.2350
379	95	3	0	7.5848	28.2301	40.7490
380	95	1	4	7.5848	28.2301	42.6490
381	96	1	4	16.1468	4.3694	16.2642
382	96	3	0	16.1468	4.3694	18.1642
383	96	3	0	16.1468	5.8194	18.6782
384	96	1	4	16.1468	5.8194	20.5782
385	97	1	4	23.6992	18.5089	33.0974
386	97	3	0	23.6992	18.5089	34.9974
387	97	3	0	23.6992	19.9589	35.5114
388	97	1	4	23.6992	19.9589	37.4114
389	98	1	4	19.8471	12.9267	40.1157
390	98	3	0	19.8471	12.9267	42.0157
391	98	3	0	19.8471	14.3767	42.5297
392	98	1	4	19.8471	14.3767	44.4297
393	99	1	4	38.2819	4.1276	26.7206
394	99	3	0	38.2819	4.1276	28.6206
395	99	3	0	38.2819	5.5776	29.1346
396	99	1	4	38.2819	5.5776	31.0346
397	100	1	4	41.1409	38.9199	0.9455
398	100	3	0	41.1409	38.9199	2.8455
399	100	3	0	41.1409	40.3699	3.3595
400	100	1	4	41.1409	40.3699	5.2595
401	0	2	-2	19.3973	24.9901	5.3681
402	0	2	-2	38.3509	9.6146	34.7989
403	0	2	-2	31.7710	22.3557	37.0713
404	0	2	-2	12.2651	4.6195	0.9917
405	0	2	-2	7.6625	20.5163	6.2310
406	0	2	-2	17.0149	29.0213	7.4473
407	0	2	-2	37.1019	20.4324	17.7178
408	0	2	-2	7.4796	30.1704	27.6319
409	0	2	-2	30.4895	40.8731	2.8870
410	0	2	-2	7.5991	22.5643	13.1716
411	0	2	-2	10.9870	25.9885	15.1916
412	0	2	-2	8.7175	19.2982	14.1294
413	0	2	-2	33.9540	11.8714	18.7513
414	0	2	-2	15.0570	20.6858	20.6726
415	0	2	-2	17.1099	24.6105	2.3705
416	0	2	-2	17.6516	40.2499	35.6317
417	0	2	-2	15.5319	14.5697	37.6802
418	0	2	-2	28.5831	7.1218	29.5842
419	0	2	-2	15.1217	34.7281	20.4961
420	0	2	-2	25.1322	20.0618	29.1827
421	0	2	-2	0.4225	4.4132	31.3945
422	0	2	-2	29.4830	36.4851	31.6396
423	0	2	-2	27.6355	35.1356	19.6395
424	0	2	-2	14.8265	12.8845	19.2748
425	0	2	-2	33.5537	29.2867	26.3834
426	0	2	-2	36.3796	4.1696	10.9403
427	0	2	-2	29.0338	13.2277	32.1774
428	0	2	-2	16.7669	17.2182	29.8548
429	0	2	-2	16.9161	33.8294	22.8481
430	0	2	-2	14.6351	3.3836	3.1239
431	0	2	-2	6.4520	30.1702	19.2666
432	0	2	-2	35.5799	32.3362	13.5208
433	0	2	-2	11.3367	1.5868	29.4043
434	0	2	-2	35.1414	11.5412	37.9593
435	0	2	-2	30.5963	1.4874	35.7667
436	0	2	-2	30.8800	21.7293	31.3917
437	0	2	-2	18.9878	11.9336	37.9727
438	0	2	-2	16.1555	15.0583	38.9320
439	0	2	-2	34.0064	36.7924	33.6373
440	0	2	-2	16.5148	24.5917	12.8628
441	0	2	-2	14.5004	33.1600	30.5453
442	0	2	-2	19.9827	27.7919	8.1242
443	0	2	-2	11.1650	40.6683	3.3246
444	0	2	-2	16.1590	2.2292	32.3860
445	0	2	-2	37.3537	28.3200	11.3245
446	0	2	-2	17.6935	12.3677	17.5134
447	0	2	-2	38.5137	1.3341	33.6689
448	0	2	-2	2.9917	11.1088	11.0621
449	0	2	-2	27.1416	22.7499	26.2523
450	0	2	-2	1.1589	30.1100	24.4750
451	0	2	-2	5.0892	40.8186	30.8561
452	0	2	-2	39.6513	10.2067	37.1066
453	0	2	-2	30.9385	41.2257	33.5758
454	0	2	-2	23.5306	24.4553	5.5045
455	0	2	-2	23.6838	26.8490	0.4967
456	0	2	-2	2.7960	28.0186	0.1491
457	0	2	-2	18.3896	20.4377	19.7863
458	0	2	-2	31.6099	39.8393	10.9765
459	0	2	-2	9.2488	35.0159	6.1569
460	0	2	-2	15.8634	23.5080	15.6698
461	0	2	-2	12.5750	35.2084	28.7451
462	0	2	-2	4.8746	39.7083	9.8527
463	0	2	-2	10.6839	40.1371	29.0523
464	0	2	-2	28.3347	10.3074	10.7959
465	0	2	-2	30.2865	20.4149	40.2411
466	0	2	-2	7.9708	3.2654	31.9679
467	0	2	-2	26.3490	41.0649	6.8152
468	0	2	-2	15.1364	22.0086	17.9571
469	0	2	-2	26.8247	3.3677	34.3830
470	0	2	-2	17.1240	2.7770	13.9729
471	0	2	-2	12.4207	15.9913	28.4588
472	0	2	-2	11.8803	0.6872	19.3361
473	0	2	-2	10.7135	35.5518	26.5843
474	0	2	-2	17.5834	9.8118	28.6616
475	0	2	-2	4.5615	41.0514	9.1766
476	0	2	-2	16.5725	8.3719	28.6352
477	0	2	-2	14.1308	9.1734	40.3928
478	0	2	-2	39.7226	23.7559	28.2085
479	0	2	-2	38.8803	4.8589	32.3891
480	0	2	-2	11.6135	28.4835	4.9414
481	0	2	-2	24.9328	11.5680	35.9992
482	0	2	-2	32.7290	19.6024	7.8393
483	0	2	-2	13.3300	40.6739	6.8653
484	0	2	-2	28.6403	33.6895	33.5111
485	0	2	-2	4.2401	3.9393	12.5553
486	0	2	-2	37.5521	18.6420	4.4977
487	0	2	-2	13.2638	31.5357	32.8808
488	0	2	-2	18.8378	22.9502	13.7678
489	0	2	-2	3.1967	21.9724	6.9638
490	0	2	-2	35.8174	6.4178	4.7735
491	0	2	-2	22.8746	16.4760	30.5837
492	0	2	-2	33.0157	26.8271	8.2565
493	0	2	-2	10.2303	18.4181	13.4265
494	0	2	-2	4.2770	25.7849	2.6350
495	0	2	-2	36.0261	2.6145	9.2883
496	0	2	-2	30.8662	12.9785	2.5742
497	0	2	-2	6.2018	4.8997	21.5518
498	0	2	-2	40.7360	28.8786	3.8947
499	0	2	-2	27.6960	2.1705	29.5815
500	0	2	-2	3.2276	6.2915	19.1443
501	0	2	-2	8.2291	13.8887	7.6150
502	0	2	-2	39.2861	35.0082	20.2101
503	0	2	-2	29.6384	7.6796	34.0970
504	0	2	-2	11.8368	9.2931	6.6123
505	0	2	-2	2.7354	7.3104	8.3631
506	0	2	-2	27.8712	37.3732	4.9796
507	0	2	-2	16.0989	18.9487	2.7491
508	0	2	-2	37.2131	1.8421	39.4025
509	0	2	-2	39.2456	4.0088	13.0217
510	0	2	-2	7.5765	26.9938	11.8369
511	0	2	-2	25.4830	40.1543	30.3111
512	0	2	-2	32.0403	29.8099	18.3101
513	0	2	-2	22.8617	11.4191	40.6172
514	0	2	-2	38.4905	2.8688	37.0639
515	0	2	-2	9.9280	28.8793	1.1636
516	0	2	-2	26.3174	14.5427	19.7334
517	0	2	-2	23.3077	37.0449	35.8441
518	0	2	-2	2.1588	28.8361	7.8950
519	0	2	-2	5.9788	5.9385	28.6563
520	0	2	-2	8.0100	19.6117	2.5545
521	0	2	-2	17.8811	4.5864	26.0002
522	0	2	-2	3.3352	34.6166	18.9644
523	0	2	-2	35.1082	35.0839	26.9286
524	0	2	-2	17.3159	9.1316	8.3662
525	0	2	-2	2.3833	26.1155	5.2681
526	0	2	-2	17.2602	41.4860	21.6856
527	0	2	-2	31.2647	10.8345	30.2207
528	0	2	-2	8.1525	23.5628	13.7837
529	0	2	-2	21.5759	19.9254	7.0301
530	0	2	-2	41.4406	5.6751	5.5299
531	0	2	-2	3.9049	33.8569	13.5865
532	0	2	-2	10.6366	9.1673	18.6452
533	0	2	-2	11.4236	2.9260	5.4867
534	0	2	-2	0.1392	39.9069	0.4153
535	0	2	-2	16.9781	10.2188	28.9113
536	0	2	-2	39.5309	30.6937	22.9202
537	0	2	-2	37.6647	6.1845	35.3918
538	0	2	-2	13.9499	25.5568	33.3328
539	0	2	-2	25.3375	38.0380	41.4882
540	0	2	-2	27.9924	36.5465	13.6125
541	0	2	-2	30.9393	34.2029	23.6860
542	0	2	-2	21.1780	1.0255	40.7737
543	0	2	-2	19.2604	8.4002	21.0733
544	0	2	-2	16.6801	31.8865	26.4211
545	0	2	-2	29.0146	34.0964	40.8822
546	0	2	-2	23.1936	10.8972	1.1078
547	0	2	-2	38.4644	32.8525	35.4566
548	0	2	-2	40.1928	26.6668	31.6660
549	0	2	-2	11.8368	33.6372	34.5315
550	0	2	-2	15.1928	34.4320	13.3911
551	0	2	-2	23.1825	20.8658	29.8605
552	0	2	-2	0.3007	36.9975	6.6164
553	0	2	-2	14.1682	31.5991	2.0267
554	0	2	-2	5.1143	26.9623	10.8053
555	0	2	-2	6.2348	41.1832	20.2016
556	0	2	-2	31.0987	0.6661	23.1121
557	0	2	-2	3.7648	29.3359	23.1321
558	0	2	-2	11.1804	33.3607	23.8436
559	0	2	-2	21.9771	29.8031	24.4998
560	0	2	-2	6.3870	37.3140	14.6236
561	0	2	-2	28.2178	31.0424	10.7884
562	0	2	-2	9.3993	25.2685	36.7473
563	0	2	-2	9.8959	15.8328	6.4525
564	0	2	-2	39.6265	9.0913	7.2915
565	0	2	-2	27.7654	7.1178	11.3354
566	0	2	-2	10.3399	8.6397	13.1205
567	0	2	-2	0.5081	1.4534	40.9986
568	0	2	-2	9.4070	24.4862	11.8576
569	0	2	-2	28.8972	28.8275	8.9889
570	0	2	-2	13.0896	4.7064	6.6791
571	0	2	-2	9.8742	26.3818	36.7223
572	0	2	-2	9.7763	11.4878	32.0391
573	0	2	-2	11.5047	7.1842	31.6373
574	0	2	-2	32.3864	19.6198	6.6311
575	0	2	-2	30.7491	20.3029	14.2547
576	0	2	-2	8.9394	5.9927	19.1401
577	0	2	-2	11.8527	32.0722	26.6585
578	0	2	-2	6.3356	4.4735	0.1291
579	0	2	-2	28.8330	29.8373	10.5457
580	0	2	-2	14.1016	8.6135	13.3729
581	0	2	-2	38.7105	5.5392	17.7383
582	0	2	-2	31.9754	4.7992	19.4603
583	0	2	-2	6.7854	25.7329	32.6482
584	0	2	-2	41.2746	2.8049	13.4575
585	0	2	-2	21.9815	33.3740	28.5836
586	0	2	-2	39.4144	33.6970	25.5483
587	0	2	-2	6.5543	8.3413	35.2204
588	0	2	-2	37.0769	3.1656	38.3469
589	0	2	-2	0.9012	13.1417	16.9993
590	0	2	-2	41.3313	27.5236	14.1815
591	0	2	-2	20.7451	31.4438	21.7433
592	0	2	-2	20.9038	40.2210	33.0016
593	0	2	-2	3.9165	40.1783	16.4864
594	0	2	-2	18.3067	29.2906	28.2513
595	0	2	-2	12.7268	25.1548	24.2662
596	0	2	-2	33.5641	3.7370	28.3046
597	0	2	-2	36.6216	21.7657	29.9597
598	0	2	-2	13.0025	33.7218	30.1333
599	0	2	-2	39.6331	30.1309	17.7316
600	0	2	-2	7.6813	27.9937	20.1914

Bonds

1	1	1	2
2	2	2	3
3	1	3	4
4	1	5	6
5	2	6	7
6	1	7	8
7	1	9	10
8	2	10	11
9	1	11	12
10	1	13	14
11	2	14	15
12	1	15	16
13	1	17	18
14	2	18	19
15	1	19	20
16	1	21	22
17	2	22	23
18	1	23	24
19	1	25	26
20	2	26	27
21	1	27	28
22	1	29	30
23	2	30	31
24	1	31	32
25	1	33	34
26	2	34	35
27	1	35	36
28	1	37	38
29	2	38	39
30	1	39	40
31	1	41	42
32	2	42	43
33	1	43	44
34	1	45	46
35	2	46	47
36	1	47	48
37	1	49	50
38	2	50	51
39	1	51	52
40	1	53	54
41	2	54	55
42	1	55	56
43	1	57	58
44	2	58	59
45	1	59	60
46	1	61	62
47	2	62	63
48	1	63	64
49	1	65	66
50	2	66	67
51	1	67	68
52	1	69	70
53	2	70	71
54	1	71	72
55	1	73	74
56	2	74	75
57	1	75	76
58	1	77	78
59	2	78	79
60	1	79	80
61	1	81	82
62	2	82	83
63	1	83	84
64	1	85	86
65	2	86	87
66	1	87	88
67	1	89	90
68	2	90	91
69	1	91	92
70	1	93	94
71	2	94	95
72	1	95	96
73	1	97	98
74	2	98	99
75	1	99	100
76	1	101	102
77	2	102	103
78	1	103	104
79	1	105	106
80	2	106	107
81	1	107	108
82	1	109	110
83	2	110	111
84	1	111	112
85	1	113	114
86	2	114	115
87	1	115	116
88	1	117	118
89	2	118	119
90	1	119	120
91	1	121	122
92	2	122	123
93	1	123	124
94	1	125	126
95	2	126	127
96	1	127	128
97	1	129	130
98	2	130	131
99	1	131	132
100	1	133	134
101	2	134	135
102	1	135	136
103	1	137	138
104	2	138	139
105	1	139	140
106	1	141	142
107	2	142	143
108	1	143	144
109	1	145	146
110	2	146	147
111	1	147	148
112	1	149	150
113	2	150	151
114	1	151	152
115	1	153	154
116	2	154	155
117	1	155	156
118	1	157	158
119	2	158	159
120	1	159	160
121	1	161	162
122	2	162	163
123	1	163	164
124	1	165	166
125	2	166	167
126	1	167	168
127	1	169	170
128	2	170	171
129	1	171	172
130	1	173	174
131	2	174	175
132	1	175	176
133	1	177	178
134	2	178	179
135	1	179	180
136	1	181	182
137	2	182	183
138	1	183	184
139	1	185	186
140	2	186	187
141	1	187	188
142	1	189	190
143	2	190	191
144	1	191	192
145	1	193	194
146	2	194	195
147	1	195	196
148	1	197	198
149	2	198	199
150	1	199	200
151	1	201	202
152	2	202	203
153	1	203	204
154	1	205	206
155	2	206	207
156	1	207	208
157	1	209	210
158	2	210	211
159	1	211	212
160	1	213	214
161	2	214	215
162	1	215	216
163	1	217	218
164	2	218	219
165	1	219	220
166	1	221	222
167	2	222	223
168	1	223	224
169	1	225	226
170	2	226	227
171	1	227	228
172	1	229	230
173	2	230	231
174	1	231	232
175	1	233	234
176	2	234	235
177	1	235	236
178	1	237	238
179	2	238	239
180	1	239	240
181	1	241	242
182	2	242	243
183	1	243	244
184	1	245	246
185	2	246	247
186	1	247	248
187	1	249	250
188	2	250	251
189	1	251	252
190	1	253	254
191	2	254	255
192	1	255	256
193	1	257	258
194	2	258	259
195	1	259	260
196	1	261	262
197	2	262	263
198	1	263	264
199	1	265	266
200	2	266	267
201	1	267	268
202	1	269	270
203	2	270	271
204	1	271	272
205	1	273	274
206	2	274	275
207	1	275	276
208	1	277	278
209	2	278	279
210	1	279	280
211	1	281	282
212	2	282	283
213	1	283	284
214	1	285	286
215	2	286	287
216	1	287	288
217	1	289	290
218	2	290	291
219	1	291	292
220	1	293	294
221	2	294	295
222	1	295	296
223	1	297	298
224	2	298	299
225	1	299	300
226	1	301	302
227	2	302	303
228	1	303	304
229	1	305	306
230	2	306	307
231	1	307	308
232	1	309	310
233	2	310	311
234	1	311	312
235	1	313	314
236	2	314	315
237	1	315	316
238	1	317	318
239	2	318	319
240	1	319	320
241	1	321	322
242	2	322	323
243	1	323	324
244	1	325	326
245	2	326	327
246	1	327	328
247	1	329	330
248	2	330	331
249	1	331	332
250	1	333	334
251	2	334	335
252	1	335	336
253	1	337	338
254	2	338	339
255	1	339	340
256	1	341	342
257	2	342	343
258	1	343	344
259	1	345	346
260	2	346	347
261	1	347	348
262	1	349	350
263	2	350	351
264	1	351	352
265	1	353	354
266	2	354	355
267	1	355	356
268	1	357	358
269	2	358	359
270	1	359	360
271	1	361	362
272	2	362	363
273	1	363	364
274	1	365	366
275	2	366	367
276	1	367	368
277	1	369	370
278	2	370	371
279	1	371	372
280	1	373	374
281	2	374	375
282	1	375	376
283	1	377	378
284	2	378	379
285	1	379	380
286	1	381	382
287	2	382	383
288	1	383	384
289	1	385	386
290	2	386	387
291	1	387	388
292	1	389	390
293	2	390	391
294	1	391	392
295	1	393	394
296	2	394	395
297	1	395	396
298	1	397	398
299	2	398	399
300	1	399	400

Angles

1	1	1	2	3
2	1	2	3	4
3	1	5	6	7
4	1	6	7	8
5	1	9	10	11
6	1	10	11	12
7	1	13	14	15
8	1	14	15	16
9	1	17	18	19
10	1	18	19	20
11	1	21	22	23
12	1	22	23	24
13	1	25	26	27
14	1	26	27	28
15	1	29	30	31
16	1	30	31	32
17	1	33	34	35
18	1	34	35	36
19	1	37	38	39
20	1	38	39	40
21	1	41	42	43
22	1	42	43	44
23	1	45	46	47
24	1	46	47	48
25	1	49	50	51
26	1	50	51	52
27	1	53	54	55
28	1	54	55	56
29	1	57	58	59
30	1	58	59	60
31	1	61	62	63
32	1	62	63	64
33	1	65	66	67
34	1	66	67	68
35	1	69	70	71
36	1	70	71	72
37	1	73	74	75
38	1	74	75	76
39	1	77	78	79
40	1	78	79	80
41	1	81	82	83
42	1	82	83	84
43	1	85	86	87
44	1	86	87	88
45	1	89	90	91
46	1	90	91	92
47	1	93	94	95
48	1	94	95	96
49	1	97	98	99
50	1	98	99	100
51	1	101	102	103
52	1	102	103	104
53	1	105	106	107
54	1	106	107	108
55	1	109	110	111
56	1	110	111	112
57	1	113	114	115
58	1	114	115	116
59	1	117	118	119
60	1	118	119	120
61	1	121	122	123
62	1	122	123	124
63	1	125	126	127
64	1	126	127	128
65	1	129	130	131
66	1	130	131	132
67	1	133	134	135
68	1	134	135	136
69	1	137	138	139
70	1	138	139	140
71	1	141	142	143
72	1	142	143	144
73	1	145	146	147
74	1	146	147	148
75	1	149	150	151
76	1	150	151	152
77	1	153	154	155
78	1	154	155	156
79	1	157	158	159
80	1	158	159	160
81	1	161	162	163
82	1	162	163	164
83	1	165	166	167
84	1	166	167	168
85	1	169	170	171
86	1	170	171	172
87	1	173	174	175
88	1	174	175	176
89	1	177	178	179
90	1	178	179	180
91	1	181	182	183
92	1	182	183	184
93	1	185	186	187
94	1	186	187	188
95	1	189	190	191
96	1	190	191	192
97	1	193	194	195
98	1	194	195	196
99	1	197	198	199
100	1	198	199	200
101	1	201	202	203
102	1	202	203	204
103	1	205	206	207
104	1	206	207	208
105	1	209	210	211
106	1	210	211	212
107	1	213	214	215
108	1	214	215	216
109	1	217	218	219
110	1	218	219	220
111	1	221	222	223
112	1	222	223	224
113	1	225	226	227
114	1	226	227	228
115	1	229	230	231
116	1	230	231	232
117	1	233	234	235
118	1	234	235	236
119	1	237	238	239
120	1	238	239	240
121	1	241	242	243
122	1	242	243	244
123	1	245	246	247
124	1	246	247	248
125	1	249	250	251
126	1	250	251	252
127	1	253	254	255
128	1	254	255	256
129	1	257	258	259
130	1	258	259	260
131	1	261	262	263
132	1	262	263	264
133	1	265	266	267
134	1	266	267	268
135	1	269	270	271
136	1	270	271	272
137	1	273	274	275
138	1	274	275	276
139	1	277	278	279
140	1	278	279	280
141	1	281	282	283
142	1	282	283	284
143	1	285	286	287
144	1	286	287	288
145	1	289	290	291
146	1	290	291	292
147	1	293	294	295
148	1	294	295	296
149	1	297	298	299
150	1	298	299	300
151	1	301	302	303
152	1	302	303	304
153	1	305	306	307
154	1	306	307	308
155	1	309	310	311
156	1	310	311	312
157	1	313	314	315
158	1	314	315	316
159	1	317	318	319
160	1	318	319	320
161	1	321	322	323
162	1	322	323	324
163	1	325	326	327
164	1	326	327	328
165	1	329	330	331
166	1	330	331	332
167	1	333	334	335
168	1	334	335	336
169	1	337	338	339
170	1	338	339	340
171	1	341	342	343
172	1	342	343	344
173	1	345	346	347
174	1	346	347	348
175	1	349	350	351
176	1	350	351	352
177	1	353	354	355
178	1	354	355	356
179	1	357	358	359
180	1	358	359	360
181	1	361	362	363
182	1	362	363	364
183	1	365	366	367
184	1	366	367	368
185	1	369	370	371
186	1	370	371	372
187	1	373	374	375
188	1	374	375	376
189	1	377	378	379
190	1	378	379	380
191	1	381	382	383
192	1	382	383	384
193	1	385	386	387
194	1	386	387	388
195	1	389	390	391
196	1	390	391	392
197	1	393	394	395
198	1	394	395	396
199	1	397	398	399
200	1	398	399	400

Dihedrals

1	1	1	2	3	4
2	1	5	6	7	8
3	1	9	10	11	12
4	1	13	14	15	16
5	1	17	18	19	20
6	1	21	22	23	24
7	1	25	26	27	28
8	1	29	30	31	32
9	1	33	34	35	36
10	1	37	38	39	40
11	1	41	42	43	44
12	1	45	46	47	48
13	1	49	50	51	52
14	1	53	54	55	56
15	1	57	58	59	60
16	1	61	62	63	64
17	1	65	66	67	68
18	1	69	70	71	72
19	1	73	74	75	76
20	1	77	78	79	80
21	1	81	82	83	84
22	1	85	86	87	88
23	1	89	90	91	92
24	1	93	94	95	96
25	1	97	98	99	100
26	1	101	102	103	104
27	1	105	106	107	108
28	1	109	110	111	112
29	1	113	114	115	116
30	1	117	118	119	120
31	1	121	122	123	124
32	1	125	126	127	128
33	1	129	130	131	132