# data file for 100 EtOCS precursors with porosity capabilities 
-4 52 xlo xhi
-4 52 ylo yhi
-4 52 zlo zhi

733 atoms
300 bonds
200 angles
100 dihedrals

3 atom types
3 bond types
1 angle types
11 dihedral types

Masses

	1	28
	2	16
	3	12

Angle Coeffs

	1	3.38	109.5185

Bond Coeffs

	1	20	1.9000
	2	20	1.5384
	3	20	1.5227

Dihedral Coeffs

	1	opls	0.3750	-0.2000	0.6250	-0.1000
	2	opls	0.0179	-0.0075	0.0613	-0.0025
	3	opls	0.0169	-0.0034	0.0596	-0.0029
	4	opls	0.0061	-0.0064	0.0680	-0.0032
	5	opls	5.1866	-0.7573	0.1955	-0.0484
	6	opls	0.0865	-0.0347	0.1369	0.0009
	7	opls	0.0260	-0.0152	0.0313	-0.0022
	8	class2	0.0035	180.0000	0.0027	180.0000	0.0293	0.0000
	9	class2	0.0000	0.0000	0.0107	180.0000	0.0000	0.0000
	10	class2	5.5263	0.0000	0.0530	-180.0000	-0.4549	0.0000
	11	class2	-0.0021	180.0000	0.0068	-180.0000	0.0249	180.0000

MiddleBondTorsion Coeffs

	1	opls
	2	opls
	3	opls
	4	opls
	5	opls
	6	opls
	7	opls
	8	class2	0	0	0	0
	9	class2	0	0	0	0
	10	class2	0	0	0	0
	11	class2	0	0	0	0

EndBondTorsion Coeffs

	1	opls
	2	opls
	3	opls
	4	opls
	5	opls
	6	opls
	7	opls
	8	class2	0	0	0	0	0	0	0	0
	9	class2	0	0	0	0	0	0	0	0
	10	class2	0	0	0	0	0	0	0	0
	11	class2	0	0	0	0	0	0	0	0

AngleTorsion Coeffs

	1	opls
	2	opls
	3	opls
	4	opls
	5	opls
	6	opls
	7	opls
	8	class2	0	0	0	0	0	0	0	0
	9	class2	0	0	0	0	0	0	0	0
	10	class2	0	0	0	0	0	0	0	0
	11	class2	0	0	0	0	0	0	0	0

AngleAngleTorsion Coeffs

	1	opls
	2	opls
	3	opls
	4	opls
	5	opls
	6	opls
	7	opls
	8	class2	0	0	0
	9	class2	0	0	0
	10	class2	0	0	0
	11	class2	0	0	0

BondBond13 Coeffs

	1	opls
	2	opls
	3	opls
	4	opls
	5	opls
	6	opls
	7	opls
	8	class2	0	0	0
	9	class2	0	0	0
	10	class2	0	0	0
	11	class2	0	0	0

Atoms

1	1	1	4	10.6223	34.9200	33.7595
2	1	3	0	10.6223	34.9200	35.6595
3	1	3	0	10.6223	36.3700	36.1735
4	1	1	4	10.6223	36.3700	38.0735
5	2	1	4	20.1344	15.8965	39.4110
6	2	3	0	20.1344	15.8965	41.3110
7	2	3	0	20.1344	17.3465	41.8250
8	2	1	4	20.1344	17.3465	43.7250
9	3	1	4	27.0416	20.6056	6.9184
10	3	3	0	27.0416	20.6056	8.8184
11	3	3	0	27.0416	22.0556	9.3324
12	3	1	4	27.0416	22.0556	11.2324
13	4	1	4	19.6624	13.6121	4.1360
14	4	3	0	19.6624	13.6121	6.0360
15	4	3	0	19.6624	15.0621	6.5500
16	4	1	4	19.6624	15.0621	8.4500
17	5	1	4	40.2733	10.0571	20.5418
18	5	3	0	40.2733	10.0571	22.4418
19	5	3	0	40.2733	11.5071	22.9558
20	5	1	4	40.2733	11.5071	24.8558
21	6	1	4	13.1619	27.1055	35.2986
22	6	3	0	13.1619	27.1055	37.1986
23	6	3	0	13.1619	28.5555	37.7126
24	6	1	4	13.1619	28.5555	39.6126
25	7	1	4	39.6946	39.0238	27.8365
26	7	3	0	39.6946	39.0238	29.7365
27	7	3	0	39.6946	40.4738	30.2505
28	7	1	4	39.6946	40.4738	32.1505
29	8	1	4	30.3437	23.9575	14.3217
30	8	3	0	30.3437	23.9575	16.2217
31	8	3	0	30.3437	25.4075	16.7357
32	8	1	4	30.3437	25.4075	18.6357
33	9	1	4	9.3082	25.0815	14.8079
34	9	3	0	9.3082	25.0815	16.7079
35	9	3	0	9.3082	26.5315	17.2219
36	9	1	4	9.3082	26.5315	19.1219
37	10	1	4	10.3622	23.8199	8.6367
38	10	3	0	10.3622	23.8199	10.5367
39	10	3	0	10.3622	25.2699	11.0507
40	10	1	4	10.3622	25.2699	12.9507
41	11	1	4	31.4953	43.1481	25.2170
42	11	3	0	31.4953	43.1481	27.1170
43	11	3	0	31.4953	44.5981	27.6310
44	11	1	4	31.4953	44.5981	29.5310
45	12	1	4	0.9657	23.5823	23.1031
46	12	3	0	0.9657	23.5823	25.0031
47	12	3	0	0.9657	25.0323	25.5171
48	12	1	4	0.9657	25.0323	27.4171
49	13	1	4	11.0120	24.3090	29.7321
50	13	3	0	11.0120	24.3090	31.6321
51	13	3	0	11.0120	25.7590	32.1461
52	13	1	4	11.0120	25.7590	34.0461
53	14	1	4	28.2999	8.7143	26.4781
54	14	3	0	28.2999	8.7143	28.3781
55	14	3	0	28.2999	10.1643	28.8921
56	14	1	4	28.2999	10.1643	30.7921
57	15	1	4	28.8485	13.6800	43.0927
58	15	3	0	28.8485	13.6800	44.9927
59	15	3	0	28.8485	15.1300	45.5067
60	15	1	4	28.8485	15.1300	47.4067
61	16	1	4	2.7518	39.2983	9.5093
62	16	3	0	2.7518	39.2983	11.4093
63	16	3	0	2.7518	40.7483	11.9233
64	16	1	4	2.7518	40.7483	13.8233
65	17	1	4	7.9180	39.9922	2.3696
66	17	3	0	7.9180	39.9922	4.2696
67	17	3	0	7.9180	41.4422	4.7836
68	17	1	4	7.9180	41.4422	6.6836
69	18	1	4	6.8730	9.4933	11.5665
70	18	3	0	6.8730	9.4933	13.4665
71	18	3	0	6.8730	10.9433	13.9805
72	18	1	4	6.8730	10.9433	15.8805
73	19	1	4	11.7387	29.2180	8.7603
74	19	3	0	11.7387	29.2180	10.6603
75	19	3	0	11.7387	30.6680	11.1743
76	19	1	4	11.7387	30.6680	13.0743
77	20	1	4	41.7870	38.2793	41.2481
78	20	3	0	41.7870	38.2793	43.1481
79	20	3	0	41.7870	39.7293	43.6621
80	20	1	4	41.7870	39.7293	45.5621
81	21	1	4	42.9638	30.7550	1.8220
82	21	3	0	42.9638	30.7550	3.7220
83	21	3	0	42.9638	32.2050	4.2360
84	21	1	4	42.9638	32.2050	6.1360
85	22	1	4	43.5179	42.8864	42.2750
86	22	3	0	43.5179	42.8864	44.1750
87	22	3	0	43.5179	44.3364	44.6890
88	22	1	4	43.5179	44.3364	46.5890
89	23	1	4	28.9176	22.0730	23.0043
90	23	3	0	28.9176	22.0730	24.9043
91	23	3	0	28.9176	23.5230	25.4183
92	23	1	4	28.9176	23.5230	27.3183
93	24	1	4	43.1098	18.4358	1.9087
94	24	3	0	43.1098	18.4358	3.8087
95	24	3	0	43.1098	19.8858	4.3227
96	24	1	4	43.1098	19.8858	6.2227
97	25	1	4	35.7735	33.7414	13.1649
98	25	3	0	35.7735	33.7414	15.0649
99	25	3	0	35.7735	35.1914	15.5789
100	25	1	4	35.7735	35.1914	17.4789
101	26	1	4	21.1624	43.1906	33.5046
102	26	3	0	21.1624	43.1906	35.4046
103	26	3	0	21.1624	44.6406	35.9186
104	26	1	4	21.1624	44.6406	37.8186
105	27	1	4	33.3358	10.8368	7.5635
106	27	3	0	33.3358	10.8368	9.4635
107	27	3	0	33.3358	12.2868	9.9775
108	27	1	4	33.3358	12.2868	11.8775
109	28	1	4	6.9320	17.4499	11.0849
110	28	3	0	6.9320	17.4499	12.9849
111	28	3	0	6.9320	18.8999	13.4989
112	28	1	4	6.9320	18.8999	15.3989
113	29	1	4	10.7112	14.0936	40.1885
114	29	3	0	10.7112	14.0936	42.0885
115	29	3	0	10.7112	15.5436	42.6025
116	29	1	4	10.7112	15.5436	44.5025
117	30	1	4	43.6231	19.6730	41.2886
118	30	3	0	43.6231	19.6730	43.1886
119	30	3	0	43.6231	21.1230	43.7026
120	30	1	4	43.6231	21.1230	45.6026
121	31	1	4	6.1713	13.7261	26.2645
122	31	3	0	6.1713	13.7261	28.1645
123	31	3	0	6.1713	15.1761	28.6785
124	31	1	4	6.1713	15.1761	30.5785
125	32	1	4	11.3911	0.2089	35.5738
126	32	3	0	11.3911	0.2089	37.4738
127	32	3	0	11.3911	1.6589	37.9878
128	32	1	4	11.3911	1.6589	39.8878
129	33	1	4	20.6859	35.4714	9.7585
130	33	3	0	20.6859	35.4714	11.6585
131	33	3	0	20.6859	36.9214	12.1725
132	33	1	4	20.6859	36.9214	14.0725
133	34	1	4	1.0843	23.7213	12.2962
134	34	3	0	1.0843	23.7213	14.1962
135	34	3	0	1.0843	25.1713	14.7102
136	34	1	4	1.0843	25.1713	16.6102
137	35	1	4	31.8120	38.4504	10.0006
138	35	3	0	31.8120	38.4504	11.9006
139	35	3	0	31.8120	39.9004	12.4146
140	35	1	4	31.8120	39.9004	14.3146
141	36	1	4	0.5854	27.7576	37.0495
142	36	3	0	0.5854	27.7576	38.9495
143	36	3	0	0.5854	29.2076	39.4635
144	36	1	4	0.5854	29.2076	41.3635
145	37	1	4	20.1158	14.1740	1.4081
146	37	3	0	20.1158	14.1740	3.3081
147	37	3	0	20.1158	15.6240	3.8221
148	37	1	4	20.1158	15.6240	5.7221
149	38	1	4	6.8869	24.3732	19.5082
150	38	3	0	6.8869	24.3732	21.4082
151	38	3	0	6.8869	25.8232	21.9222
152	38	1	4	6.8869	25.8232	23.8222
153	39	1	4	38.0105	26.9503	19.3952
154	39	3	0	38.0105	26.9503	21.2952
155	39	3	0	38.0105	28.4003	21.8092
156	39	1	4	38.0105	28.4003	23.7092
157	40	1	4	44.1008	44.3574	18.1392
158	40	3	0	44.1008	44.3574	20.0392
159	40	3	0	44.1008	45.8074	20.5532
160	40	1	4	44.1008	45.8074	22.4532
161	41	1	4	25.5783	41.3394	31.5223
162	41	3	0	25.5783	41.3394	33.4223
163	41	3	0	25.5783	42.7894	33.9363
164	41	1	4	25.5783	42.7894	35.8363
165	42	1	4	12.9269	15.8204	29.2972
166	42	3	0	12.9269	15.8204	31.1972
167	42	3	0	12.9269	17.2704	31.7112
168	42	1	4	12.9269	17.2704	33.6112
169	43	1	4	31.5730	20.9607	39.1222
170	43	3	0	31.5730	20.9607	41.0222
171	43	3	0	31.5730	22.4107	41.5362
172	43	1	4	31.5730	22.4107	43.4362
173	44	1	4	4.7971	12.7098	26.3112
174	44	3	0	4.7971	12.7098	28.2112
175	44	3	0	4.7971	14.1598	28.7252
176	44	1	4	4.7971	14.1598	30.6252
177	45	1	4	4.2996	13.5733	23.8394
178	45	3	0	4.2996	13.5733	25.7394
179	45	3	0	4.2996	15.0233	26.2534
180	45	1	4	4.2996	15.0233	28.1534
181	46	1	4	13.8381	39.9197	2.0488
182	46	3	0	13.8381	39.9197	3.9488
183	46	3	0	13.8381	41.3697	4.4628
184	46	1	4	13.8381	41.3697	6.3628
185	47	1	4	5.4226	15.7681	5.6328
186	47	3	0	5.4226	15.7681	7.5328
187	47	3	0	5.4226	17.2181	8.0468
188	47	1	4	5.4226	17.2181	9.9468
189	48	1	4	40.6318	24.5575	6.7486
190	48	3	0	40.6318	24.5575	8.6486
191	48	3	0	40.6318	26.0075	9.1626
192	48	1	4	40.6318	26.0075	11.0626
193	49	1	4	16.9014	28.8884	20.7296
194	49	3	0	16.9014	28.8884	22.6296
195	49	3	0	16.9014	30.3384	23.1436
196	49	1	4	16.9014	30.3384	25.0436
197	50	1	4	17.0304	10.6829	14.4277
198	50	3	0	17.0304	10.6829	16.3277
199	50	3	0	17.0304	12.1329	16.8417
200	50	1	4	17.0304	12.1329	18.7417
201	51	1	4	25.7068	43.0461	33.3356
202	51	3	0	25.7068	43.0461	35.2356
203	51	3	0	25.7068	44.4961	35.7496
204	51	1	4	25.7068	44.4961	37.6496
205	52	1	4	40.0502	31.0858	6.1562
206	52	3	0	40.0502	31.0858	8.0562
207	52	3	0	40.0502	32.5358	8.5702
208	52	1	4	40.0502	32.5358	10.4702
209	53	1	4	14.4819	1.5009	6.7286
210	53	3	0	14.4819	1.5009	8.6286
211	53	3	0	14.4819	2.9509	9.1426
212	53	1	4	14.4819	2.9509	11.0426
213	54	1	4	1.6249	28.1661	43.3449
214	54	3	0	1.6249	28.1661	45.2449
215	54	3	0	1.6249	29.6161	45.7589
216	54	1	4	1.6249	29.6161	47.6589
217	55	1	4	23.1338	43.6411	5.7146
218	55	3	0	23.1338	43.6411	7.6146
219	55	3	0	23.1338	45.0911	8.1286
220	55	1	4	23.1338	45.0911	10.0286
221	56	1	4	41.1363	9.6231	24.2657
222	56	3	0	41.1363	9.6231	26.1657
223	56	3	0	41.1363	11.0731	26.6797
224	56	1	4	41.1363	11.0731	28.5797
225	57	1	4	25.5191	9.8837	34.8593
226	57	3	0	25.5191	9.8837	36.7593
227	57	3	0	25.5191	11.3337	37.2733
228	57	1	4	25.5191	11.3337	39.1733
229	58	1	4	33.9199	18.3773	35.2511
230	58	3	0	33.9199	18.3773	37.1511
231	58	3	0	33.9199	19.8273	37.6651
232	58	1	4	33.9199	19.8273	39.5651
233	59	1	4	26.1422	17.7773	38.4457
234	59	3	0	26.1422	17.7773	40.3457
235	59	3	0	26.1422	19.2273	40.8597
236	59	1	4	26.1422	19.2273	42.7597
237	60	1	4	37.7320	38.3303	2.2621
238	60	3	0	37.7320	38.3303	4.1621
239	60	3	0	37.7320	39.7803	4.6761
240	60	1	4	37.7320	39.7803	6.5761
241	61	1	4	34.2022	39.6567	4.0380
242	61	3	0	34.2022	39.6567	5.9380
243	61	3	0	34.2022	41.1067	6.4520
244	61	1	4	34.2022	41.1067	8.3520
245	62	1	4	29.9568	8.5208	13.4095
246	62	3	0	29.9568	8.5208	15.3095
247	62	3	0	29.9568	9.9708	15.8235
248	62	1	4	29.9568	9.9708	17.7235
249	63	1	4	25.0504	29.6025	24.7186
250	63	3	0	25.0504	29.6025	26.6186
251	63	3	0	25.0504	31.0525	27.1326
252	63	1	4	25.0504	31.0525	29.0326
253	64	1	4	25.8577	25.5812	15.9243
254	64	3	0	25.8577	25.5812	17.8243
255	64	3	0	25.8577	27.0312	18.3383
256	64	1	4	25.8577	27.0312	20.2383
257	65	1	4	25.0268	19.4391	36.4560
258	65	3	0	25.0268	19.4391	38.3560
259	65	3	0	25.0268	20.8891	38.8700
260	65	1	4	25.0268	20.8891	40.7700
261	66	1	4	35.4583	26.9244	8.3189
262	66	3	0	35.4583	26.9244	10.2189
263	66	3	0	35.4583	28.3744	10.7329
264	66	1	4	35.4583	28.3744	12.6329
265	67	1	4	43.5262	42.6246	41.7651
266	67	3	0	43.5262	42.6246	43.6651
267	67	3	0	43.5262	44.0746	44.1791
268	67	1	4	43.5262	44.0746	46.0791
269	68	1	4	8.9980	42.8194	5.6504
270	68	3	0	8.9980	42.8194	7.5504
271	68	3	0	8.9980	44.2694	8.0644
272	68	1	4	8.9980	44.2694	9.9644
273	69	1	4	21.9175	38.6654	37.1385
274	69	3	0	21.9175	38.6654	39.0385
275	69	3	0	21.9175	40.1154	39.5525
276	69	1	4	21.9175	40.1154	41.4525
277	70	1	4	30.1381	7.0025	16.5156
278	70	3	0	30.1381	7.0025	18.4156
279	70	3	0	30.1381	8.4525	18.9296
280	70	1	4	30.1381	8.4525	20.8296
281	71	1	4	44.2065	17.3560	3.0189
282	71	3	0	44.2065	17.3560	4.9189
283	71	3	0	44.2065	18.8060	5.4329
284	71	1	4	44.2065	18.8060	7.3329
285	72	1	4	23.8864	15.6512	33.7579
286	72	3	0	23.8864	15.6512	35.6579
287	72	3	0	23.8864	17.1012	36.1719
288	72	1	4	23.8864	17.1012	38.0719
289	73	1	4	37.2997	5.0869	17.9267
290	73	3	0	37.2997	5.0869	19.8267
291	73	3	0	37.2997	6.5369	20.3407
292	73	1	4	37.2997	6.5369	22.2407
293	74	1	4	7.3247	22.2180	15.4583
294	74	3	0	7.3247	22.2180	17.3583
295	74	3	0	7.3247	23.6680	17.8723
296	74	1	4	7.3247	23.6680	19.7723
297	75	1	4	33.5959	18.2659	28.8676
298	75	3	0	33.5959	18.2659	30.7676
299	75	3	0	33.5959	19.7159	31.2816
300	75	1	4	33.5959	19.7159	33.1816
301	76	1	4	7.0500	12.7903	30.8149
302	76	3	0	7.0500	12.7903	32.7149
303	76	3	0	7.0500	14.2403	33.2289
304	76	1	4	7.0500	14.2403	35.1289
305	77	1	4	10.3425	22.4227	4.8901
306	77	3	0	10.3425	22.4227	6.7901
307	77	3	0	10.3425	23.8727	7.3041
308	77	1	4	10.3425	23.8727	9.2041
309	78	1	4	15.5061	23.8011	9.6907
310	78	3	0	15.5061	23.8011	11.5907
311	78	3	0	15.5061	25.2511	12.1047
312	78	1	4	15.5061	25.2511	14.0047
313	79	1	4	21.0834	14.1871	31.3949
314	79	3	0	21.0834	14.1871	33.2949
315	79	3	0	21.0834	15.6371	33.8089
316	79	1	4	21.0834	15.6371	35.7089
317	80	1	4	7.6742	32.5568	13.4153
318	80	3	0	7.6742	32.5568	15.3153
319	80	3	0	7.6742	34.0068	15.8293
320	80	1	4	7.6742	34.0068	17.7293
321	81	1	4	14.2566	1.0032	5.1512
322	81	3	0	14.2566	1.0032	7.0512
323	81	3	0	14.2566	2.4532	7.5652
324	81	1	4	14.2566	2.4532	9.4652
325	82	1	4	22.9950	30.4474	39.7437
326	82	3	0	22.9950	30.4474	41.6437
327	82	3	0	22.9950	31.8974	42.1577
328	82	1	4	22.9950	31.8974	44.0577
329	83	1	4	28.1823	5.9487	25.6585
330	83	3	0	28.1823	5.9487	27.5585
331	83	3	0	28.1823	7.3987	28.0725
332	83	1	4	28.1823	7.3987	29.9725
333	84	1	4	35.9657	9.6766	18.9422
334	84	3	0	35.9657	9.6766	20.8422
335	84	3	0	35.9657	11.1266	21.3562
336	84	1	4	35.9657	11.1266	23.2562
337	85	1	4	11.9472	21.1160	9.8341
338	85	3	0	11.9472	21.1160	11.7341
339	85	3	0	11.9472	22.5660	12.2481
340	85	1	4	11.9472	22.5660	14.1481
341	86	1	4	43.2358	28.2090	37.2134
342	86	3	0	43.2358	28.2090	39.1134
343	86	3	0	43.2358	29.6590	39.6274
344	86	1	4	43.2358	29.6590	41.5274
345	87	1	4	34.6371	2.7575	13.9177
346	87	3	0	34.6371	2.7575	15.8177
347	87	3	0	34.6371	4.2075	16.3317
348	87	1	4	34.6371	4.2075	18.2317
349	88	1	4	22.2810	9.6143	30.2167
350	88	3	0	22.2810	9.6143	32.1167
351	88	3	0	22.2810	11.0643	32.6307
352	88	1	4	22.2810	11.0643	34.5307
353	89	1	4	5.7241	23.0782	9.0525
354	89	3	0	5.7241	23.0782	10.9525
355	89	3	0	5.7241	24.5282	11.4665
356	89	1	4	5.7241	24.5282	13.3665
357	90	1	4	31.2153	0.8441	9.7693
358	90	3	0	31.2153	0.8441	11.6693
359	90	3	0	31.2153	2.2941	12.1833
360	90	1	4	31.2153	2.2941	14.0833
361	91	1	4	1.6419	31.4168	20.8014
362	91	3	0	1.6419	31.4168	22.7014
363	91	3	0	1.6419	32.8668	23.2154
364	91	1	4	1.6419	32.8668	25.1154
365	92	1	4	3.8535	18.0549	31.9222
366	92	3	0	3.8535	18.0549	33.8222
367	92	3	0	3.8535	19.5049	34.3362
368	92	1	4	3.8535	19.5049	36.2362
369	93	1	4	4.8134	39.2555	15.1978
370	93	3	0	4.8134	39.2555	17.0978
371	93	3	0	4.8134	40.7055	17.6118
372	93	1	4	4.8134	40.7055	19.5118
373	94	1	4	35.3164	27.1006	15.7087
374	94	3	0	35.3164	27.1006	17.6087
375	94	3	0	35.3164	28.5506	18.1227
376	94	1	4	35.3164	28.5506	20.0227
377	95	1	4	13.4163	14.5608	17.3307
378	95	3	0	13.4163	14.5608	19.2307
379	95	3	0	13.4163	16.0108	19.7447
380	95	1	4	13.4163	16.0108	21.6447
381	96	1	4	1.2481	37.7228	35.8993
382	96	3	0	1.2481	37.7228	37.7993
383	96	3	0	1.2481	39.1728	38.3133
384	96	1	4	1.2481	39.1728	40.2133
385	97	1	4	20.7177	23.9403	0.3273
386	97	3	0	20.7177	23.9403	2.2273
387	97	3	0	20.7177	25.3903	2.7413
388	97	1	4	20.7177	25.3903	4.6413
389	98	1	4	41.1068	4.8174	14.8235
390	98	3	0	41.1068	4.8174	16.7235
391	98	3	0	41.1068	6.2674	17.2375
392	98	1	4	41.1068	6.2674	19.1375
393	99	1	4	0.6555	13.8165	29.7953
394	99	3	0	0.6555	13.8165	31.6953
395	99	3	0	0.6555	15.2665	32.2093
396	99	1	4	0.6555	15.2665	34.1093
397	100	1	4	18.7840	43.4062	15.6795
398	100	3	0	18.7840	43.4062	17.5795
399	100	3	0	18.7840	44.8562	18.0935
400	100	1	4	18.7840	44.8562	19.9935
401	0	2	-2	33.8735	16.6779	18.3424
402	0	2	-2	9.0785	29.4724	25.0371
403	0	2	-2	39.7007	38.7017	22.8385
404	0	2	-2	21.1184	36.5164	37.5291
405	0	2	-2	42.5081	19.5058	8.4828
406	0	2	-2	6.2591	32.3474	29.0421
407	0	2	-2	32.8589	33.0145	16.0057
408	0	2	-2	34.0716	22.2164	25.9530
409	0	2	-2	25.1241	22.6440	8.4613
410	0	2	-2	10.1468	4.0280	33.4848
411	0	2	-2	21.9109	25.6695	29.6499
412	0	2	-2	15.6372	21.0721	37.1850
413	0	2	-2	40.5470	16.9814	1.5143
414	0	2	-2	41.8529	6.4963	17.4806
415	0	2	-2	35.6660	22.6757	4.6497
416	0	2	-2	18.6201	1.4981	44.1468
417	0	2	-2	26.1063	15.6149	27.1160
418	0	2	-2	43.5958	41.7571	24.2105
419	0	2	-2	37.7436	8.3495	31.3928
420	0	2	-2	35.7007	27.8803	30.0905
421	0	2	-2	14.8669	29.6359	29.1598
422	0	2	-2	14.4992	41.5540	21.7257
423	0	2	-2	22.4968	4.9250	9.5079
424	0	2	-2	25.0663	33.9632	5.4589
425	0	2	-2	9.7159	6.7952	1.3094
426	0	2	-2	34.5331	28.3557	4.7036
427	0	2	-2	18.1568	13.2274	33.9024
428	0	2	-2	24.5502	33.7660	20.4482
429	0	2	-2	2.3051	38.8030	1.1349
430	0	2	-2	23.8681	35.7136	18.9769
431	0	2	-2	6.6174	13.7813	21.0774
432	0	2	-2	38.4384	43.8258	39.7419
433	0	2	-2	32.3121	23.0294	8.3812
434	0	2	-2	14.9253	43.6982	3.0712
435	0	2	-2	17.1629	8.3427	25.7333
436	0	2	-2	6.5524	37.0591	11.7184
437	0	2	-2	14.4922	20.9123	43.7755
438	0	2	-2	36.1527	4.1651	23.3715
439	0	2	-2	38.5330	12.1356	5.0966
440	0	2	-2	40.8812	20.4071	12.7150
441	0	2	-2	12.4403	39.7850	5.9714
442	0	2	-2	28.7732	23.6499	35.4300
443	0	2	-2	6.4525	41.7371	40.7426
444	0	2	-2	2.4871	0.8571	38.3494
445	0	2	-2	23.1614	18.1434	34.8675
446	0	2	-2	3.0991	43.6073	39.3285
447	0	2	-2	43.7743	8.7455	2.9240
448	0	2	-2	33.9983	6.6312	18.4293
449	0	2	-2	8.9584	16.2749	19.6807
450	0	2	-2	7.6818	1.7944	38.8969
451	0	2	-2	15.8005	3.8093	22.6022
452	0	2	-2	43.8560	10.7360	29.4311
453	0	2	-2	32.5303	26.1948	7.5896
454	0	2	-2	36.8411	13.0279	36.9832
455	0	2	-2	23.4079	18.3049	6.4869
456	0	2	-2	26.8416	41.3740	41.0230
457	0	2	-2	35.3357	30.3480	8.9564
458	0	2	-2	0.3211	21.7333	9.3916
459	0	2	-2	31.7264	39.8240	15.8091
460	0	2	-2	21.5065	13.3227	20.7723
461	0	2	-2	41.6386	41.9728	25.4375
462	0	2	-2	18.3140	12.9851	26.3079
463	0	2	-2	28.4328	25.8685	8.8877
464	0	2	-2	22.8336	10.8992	32.0333
465	0	2	-2	12.6213	39.4581	8.4205
466	0	2	-2	3.5902	20.1973	25.7834
467	0	2	-2	4.8831	8.8060	20.1654
468	0	2	-2	43.7679	37.4299	9.1611
469	0	2	-2	24.8064	13.6081	34.9305
470	0	2	-2	6.1008	29.1883	4.3394
471	0	2	-2	25.0921	41.2056	40.5112
472	0	2	-2	29.3366	4.7167	7.8809
473	0	2	-2	10.8733	36.4887	5.2793
474	0	2	-2	40.7615	8.3329	40.5849
475	0	2	-2	9.4047	4.1687	9.7106
476	0	2	-2	22.9840	24.6556	21.8286
477	0	2	-2	0.1638	13.6322	24.6083
478	0	2	-2	25.7313	18.4796	31.8024
479	0	2	-2	22.3478	5.2374	41.5787
480	0	2	-2	42.3730	36.7649	2.6665
481	0	2	-2	15.7870	32.3313	26.2874
482	0	2	-2	11.4422	40.5787	26.0101
483	0	2	-2	43.2988	36.4043	31.0080
484	0	2	-2	22.0478	16.4527	10.7768
485	0	2	-2	16.0983	26.6069	0.4301
486	0	2	-2	20.9276	10.9192	6.2082
487	0	2	-2	42.9521	11.4116	36.3246
488	0	2	-2	21.6045	42.9193	41.4054
489	0	2	-2	12.0466	22.0863	5.7782
490	0	2	-2	11.7357	6.1726	30.1115
491	0	2	-2	26.9611	41.5260	16.3859
492	0	2	-2	42.9136	8.4042	42.3778
493	0	2	-2	23.2289	41.9109	4.4227
494	0	2	-2	22.5050	33.5845	28.4251
495	0	2	-2	10.6635	43.7717	35.6538
496	0	2	-2	31.7610	29.7635	36.3951
497	0	2	-2	36.0855	23.4429	23.5295
498	0	2	-2	10.0859	13.6156	6.5650
499	0	2	-2	25.2230	35.3950	25.1804
500	0	2	-2	13.4193	41.8375	12.9080
501	0	2	-2	23.6494	22.4965	20.8017
502	0	2	-2	13.8243	21.0868	35.1622
503	0	2	-2	20.0365	6.0133	21.9372
504	0	2	-2	37.1082	4.7958	24.6775
505	0	2	-2	13.8768	25.6275	30.5514
506	0	2	-2	44.3623	18.1877	30.4114
507	0	2	-2	30.5697	20.9419	8.8711
508	0	2	-2	36.9687	9.8936	12.4609
509	0	2	-2	35.6797	26.6706	3.2517
510	0	2	-2	26.1597	41.8369	33.6193
511	0	2	-2	18.9015	8.7273	2.1693
512	0	2	-2	13.1670	20.3469	18.1845
513	0	2	-2	17.9001	3.0166	30.0415
514	0	2	-2	26.1141	37.8628	29.7904
515	0	2	-2	29.2695	10.1479	28.0077
516	0	2	-2	20.2819	41.4270	40.0895
517	0	2	-2	20.6126	1.1673	31.7881
518	0	2	-2	34.3919	10.4249	10.7957
519	0	2	-2	4.3697	41.0438	22.4541
520	0	2	-2	16.2583	4.7375	40.0928
521	0	2	-2	19.4806	34.9257	41.4953
522	0	2	-2	6.4728	40.9669	23.6484
523	0	2	-2	14.7407	4.4649	21.1564
524	0	2	-2	31.8327	30.3250	31.0386
525	0	2	-2	23.3254	15.7340	1.1433
526	0	2	-2	28.9366	38.8978	10.4002
527	0	2	-2	34.0426	20.3778	23.6792
528	0	2	-2	23.2751	22.5035	36.1337
529	0	2	-2	32.6183	31.4078	28.1535
530	0	2	-2	3.0945	40.6105	26.2598
531	0	2	-2	14.5857	17.8209	9.1663
532	0	2	-2	9.8367	14.5389	19.5861
533	0	2	-2	3.7138	3.6973	11.5584
534	0	2	-2	26.0051	44.2930	34.4301
535	0	2	-2	17.8937	6.5890	31.9233
536	0	2	-2	10.6642	40.3606	39.8260
537	0	2	-2	36.5659	18.3812	28.5791
538	0	2	-2	11.9167	15.5047	18.0572
539	0	2	-2	1.6464	18.6242	39.7677
540	0	2	-2	10.2871	38.8112	19.3905
541	0	2	-2	32.2378	18.5834	3.5894
542	0	2	-2	8.9136	7.8300	15.7498
543	0	2	-2	23.8268	16.6556	34.5492
544	0	2	-2	41.4603	43.8741	13.3289
545	0	2	-2	22.3048	11.0085	1.5780
546	0	2	-2	29.7072	39.6509	11.8922
547	0	2	-2	28.5410	14.7833	36.8439
548	0	2	-2	2.9539	15.0384	22.8036
549	0	2	-2	42.8622	11.5596	22.1339
550	0	2	-2	34.2473	28.0303	28.1630
551	0	2	-2	44.3785	20.3217	11.3632
552	0	2	-2	24.4163	16.9080	42.2295
553	0	2	-2	11.4690	38.2506	12.5742
554	0	2	-2	19.1796	22.4913	27.9950
555	0	2	-2	35.5943	25.7437	34.0023
556	0	2	-2	37.3295	12.4560	33.1431
557	0	2	-2	30.1041	14.9206	29.7210
558	0	2	-2	21.0952	32.3224	6.6280
559	0	2	-2	8.0667	35.8866	3.2414
560	0	2	-2	35.9270	30.5445	30.9622
561	0	2	-2	24.5616	0.4873	10.0905
562	0	2	-2	0.7944	11.1455	14.0848
563	0	2	-2	14.2932	19.0604	32.8570
564	0	2	-2	14.6283	27.8217	27.2622
565	0	2	-2	39.3728	26.2546	36.7285
566	0	2	-2	30.1671	43.1847	24.8202
567	0	2	-2	2.3590	25.5642	14.0784
568	0	2	-2	2.7856	31.3258	33.2708
569	0	2	-2	28.5048	28.1485	1.1017
570	0	2	-2	9.0612	24.9967	23.0753
571	0	2	-2	12.9489	12.0130	33.9834
572	0	2	-2	41.1453	6.2108	38.7329
573	0	2	-2	19.0824	8.1437	17.5012
574	0	2	-2	27.2383	30.9119	38.3009
575	0	2	-2	19.7160	15.7565	10.3246
576	0	2	-2	16.7737	23.9727	27.1620
577	0	2	-2	10.9746	4.0537	1.4140
578	0	2	-2	5.2227	24.6325	10.9653
579	0	2	-2	2.1860	27.3180	43.1773
580	0	2	-2	5.6728	16.2074	11.7476
581	0	2	-2	13.7183	4.1040	32.3583
582	0	2	-2	33.5451	26.0696	37.9766
583	0	2	-2	24.6206	28.8458	25.6216
584	0	2	-2	0.7479	22.4539	0.9203
585	0	2	-2	23.5793	30.8263	21.7872
586	0	2	-2	40.1295	0.2085	17.5074
587	0	2	-2	42.3136	37.9613	31.8590
588	0	2	-2	33.2452	21.7842	17.4663
589	0	2	-2	14.0471	38.1629	32.2696
590	0	2	-2	18.3965	35.9036	10.2110
591	0	2	-2	18.2174	2.1589	33.8027
592	0	2	-2	9.8669	38.0904	32.2389
593	0	2	-2	7.3552	4.5509	25.5907
594	0	2	-2	27.6180	42.5976	13.5120
595	0	2	-2	37.0141	40.4671	43.7499
596	0	2	-2	11.4879	43.9371	19.2918
597	0	2	-2	33.9352	13.9098	7.7759
598	0	2	-2	13.9436	7.8608	29.8183
599	0	2	-2	3.2257	12.6710	13.4023
600	0	2	-2	8.7337	37.7022	12.7386
601	0	2	-2	7.2750	38.2259	29.8175
602	0	2	-2	1.6387	31.9030	17.0428
603	0	2	-2	4.6405	0.6576	37.0222
604	0	2	-2	18.5662	25.4954	35.3214
605	0	2	-2	12.1613	27.7292	31.9506
606	0	2	-2	37.4511	40.6190	4.5472
607	0	2	-2	36.2761	33.4744	27.5012
608	0	2	-2	23.3706	18.1195	34.3344
609	0	2	-2	7.2121	19.1616	22.4364
610	0	2	-2	9.5093	11.9135	22.5787
611	0	2	-2	41.1850	16.9607	17.1994
612	0	2	-2	32.6741	37.5365	0.3781
613	0	2	-2	31.7075	13.4510	29.1457
614	0	2	-2	22.7809	7.3106	32.1169
615	0	2	-2	17.7785	28.2316	33.0473
616	0	2	-2	31.9824	5.4231	28.2539
617	0	2	-2	21.6263	25.2681	39.3173
618	0	2	-2	42.9115	6.9550	38.1665
619	0	2	-2	15.9529	26.8270	13.3369
620	0	2	-2	23.0403	36.4252	14.9514
621	0	2	-2	34.2638	20.0748	24.4240
622	0	2	-2	13.3686	9.9209	5.4911
623	0	2	-2	37.7302	11.4191	14.4960
624	0	2	-2	35.5555	26.2500	3.2772
625	0	2	-2	41.5166	0.5156	25.1171
626	0	2	-2	24.1841	33.8963	3.6807
627	0	2	-2	19.4616	37.3047	35.7219
628	0	2	-2	14.0512	14.4426	11.0885
629	0	2	-2	1.0295	24.1408	0.1230
630	0	2	-2	41.4532	17.4299	6.8599
631	0	2	-2	42.6902	15.3734	39.8084
632	0	2	-2	10.8441	0.1245	24.8148
633	0	2	-2	2.2465	14.4895	38.9284
634	0	2	-2	11.7351	17.4865	36.5526
635	0	2	-2	38.6660	42.5403	20.1459
636	0	2	-2	40.7299	39.3788	30.7703
637	0	2	-2	41.4436	7.6180	28.5949
638	0	2	-2	0.6573	18.9309	42.3625
639	0	2	-2	26.2387	17.5487	18.1788
640	0	2	-2	20.4123	33.6450	28.2002
641	0	2	-2	15.0274	26.0547	8.5491
642	0	2	-2	4.1194	3.8018	43.9345
643	0	2	-2	29.1843	31.3848	34.3315
644	0	2	-2	34.2392	38.3507	3.7317
645	0	2	-2	36.4943	31.5842	3.8305
646	0	2	-2	4.6956	9.1784	26.4155
647	0	2	-2	24.4672	15.8832	25.8810
648	0	2	-2	32.2076	23.6678	8.4561
649	0	2	-2	29.4001	37.4665	19.3670
650	0	2	-2	27.7828	16.1339	11.5588
651	0	2	-2	39.9271	38.6682	43.0224
652	0	2	-2	1.2215	30.8665	2.5475
653	0	2	-2	3.9335	5.3206	25.5872
654	0	2	-2	25.1939	40.5655	2.1580
655	0	2	-2	4.0062	29.0966	42.1965
656	0	2	-2	3.1574	31.5622	30.1686
657	0	2	-2	12.3262	35.2199	15.5628
658	0	2	-2	3.6391	16.0635	8.2412
659	0	2	-2	24.9866	4.7855	6.0304
660	0	2	-2	41.4620	9.0530	44.2755
661	0	2	-2	33.6989	1.2012	1.4827
662	0	2	-2	4.4133	2.0327	24.0020
663	0	2	-2	11.3180	20.4514	36.2018
664	0	2	-2	18.6039	32.9711	35.4027
665	0	2	-2	43.3984	35.9585	11.8087
666	0	2	-2	40.1553	37.3152	21.8931
667	0	2	-2	10.2639	32.9461	27.7468
668	0	2	-2	35.0534	32.8366	20.4742
669	0	2	-2	3.3007	8.4280	42.1398
670	0	2	-2	4.1727	1.3939	41.3886
671	0	2	-2	2.9858	10.6649	0.1966
672	0	2	-2	40.6886	13.9200	38.5301
673	0	2	-2	26.8732	20.8281	43.2073
674	0	2	-2	44.0655	8.4234	3.6905
675	0	2	-2	25.1152	36.6585	41.1301
676	0	2	-2	14.5918	21.0520	25.4707
677	0	2	-2	37.5220	35.0521	36.4256
678	0	2	-2	27.2776	5.1743	32.9415
679	0	2	-2	27.2172	44.0309	40.2527
680	0	2	-2	6.8867	16.3553	7.6035
681	0	2	-2	19.6631	15.3250	31.4476
682	0	2	-2	2.8434	14.2317	4.4198
683	0	2	-2	28.7839	29.6558	18.9088
684	0	2	-2	29.9919	13.1004	13.9365
685	0	2	-2	1.9820	9.4695	14.5832
686	0	2	-2	25.3434	27.3578	16.8616
687	0	2	-2	33.4648	18.5975	6.7432
688	0	2	-2	3.5067	6.0834	35.5884
689	0	2	-2	0.8488	1.5796	23.1709
690	0	2	-2	3.0391	13.4445	14.0942
691	0	2	-2	34.8897	41.9226	42.3412
692	0	2	-2	0.5668	16.0508	31.1464
693	0	2	-2	9.2928	17.2577	8.4188
694	0	2	-2	21.4270	37.2179	25.2253
695	0	2	-2	12.4183	21.8937	5.7309
696	0	2	-2	10.0205	11.6631	12.9649
697	0	2	-2	26.5144	34.6119	38.9358
698	0	2	-2	1.8025	41.2233	40.0782
699	0	2	-2	9.1915	24.8074	32.6105
700	0	2	-2	18.3884	17.2234	38.4531
701	0	2	-2	11.6872	7.9098	9.1961
702	0	2	-2	15.6202	29.6423	37.9243
703	0	2	-2	17.2273	15.4466	14.4111
704	0	2	-2	4.4092	12.1912	39.2657
705	0	2	-2	22.3975	23.3428	29.2982
706	0	2	-2	1.1206	29.5880	27.8140
707	0	2	-2	35.0381	37.0949	35.3589
708	0	2	-2	29.9845	12.0578	35.2687
709	0	2	-2	39.8353	25.6070	0.0498
710	0	2	-2	18.0395	23.9696	37.5294
711	0	2	-2	17.6070	31.0541	37.4847
712	0	2	-2	29.4832	24.4816	25.1477
713	0	2	-2	26.3490	41.2515	22.1132
714	0	2	-2	11.2600	38.3857	14.8438
715	0	2	-2	22.2213	36.0897	25.5731
716	0	2	-2	26.5362	40.1698	11.8882
717	0	2	-2	2.3946	1.4135	25.4704
718	0	2	-2	26.8718	40.4395	40.9732
719	0	2	-2	31.7372	8.7881	3.1599
720	0	2	-2	18.3492	3.9152	32.9979
721	0	2	-2	42.8070	33.2964	12.8559
722	0	2	-2	32.8411	27.7434	23.7621
723	0	2	-2	17.4689	8.9709	39.5052
724	0	2	-2	42.2266	44.4565	34.2135
725	0	2	-2	42.3909	25.2756	37.6786
726	0	2	-2	0.7323	41.1366	20.7508
727	0	2	-2	26.6256	19.3898	13.2789
728	0	2	-2	14.5347	42.9142	38.8762
729	0	2	-2	38.5984	25.3318	32.4895
730	0	2	-2	6.4308	35.9833	2.2489
731	0	2	-2	4.1671	28.6163	40.4405
732	0	2	-2	41.7321	0.0922	4.0950
733	0	2	-2	24.7042	44.3616	23.1091

Bonds

1	1	1	2
2	2	2	3
3	1	3	4
4	1	5	6
5	2	6	7
6	1	7	8
7	1	9	10
8	2	10	11
9	1	11	12
10	1	13	14
11	2	14	15
12	1	15	16
13	1	17	18
14	2	18	19
15	1	19	20
16	1	21	22
17	2	22	23
18	1	23	24
19	1	25	26
20	2	26	27
21	1	27	28
22	1	29	30
23	2	30	31
24	1	31	32
25	1	33	34
26	2	34	35
27	1	35	36
28	1	37	38
29	2	38	39
30	1	39	40
31	1	41	42
32	2	42	43
33	1	43	44
34	1	45	46
35	2	46	47
36	1	47	48
37	1	49	50
38	2	50	51
39	1	51	52
40	1	53	54
41	2	54	55
42	1	55	56
43	1	57	58
44	2	58	59
45	1	59	60
46	1	61	62
47	2	62	63
48	1	63	64
49	1	65	66
50	2	66	67
51	1	67	68
52	1	69	70
53	2	70	71
54	1	71	72
55	1	73	74
56	2	74	75
57	1	75	76
58	1	77	78
59	2	78	79
60	1	79	80
61	1	81	82
62	2	82	83
63	1	83	84
64	1	85	86
65	2	86	87
66	1	87	88
67	1	89	90
68	2	90	91
69	1	91	92
70	1	93	94
71	2	94	95
72	1	95	96
73	1	97	98
74	2	98	99
75	1	99	100
76	1	101	102
77	2	102	103
78	1	103	104
79	1	105	106
80	2	106	107
81	1	107	108
82	1	109	110
83	2	110	111
84	1	111	112
85	1	113	114
86	2	114	115
87	1	115	116
88	1	117	118
89	2	118	119
90	1	119	120
91	1	121	122
92	2	122	123
93	1	123	124
94	1	125	126
95	2	126	127
96	1	127	128
97	1	129	130
98	2	130	131
99	1	131	132
100	1	133	134
101	2	134	135
102	1	135	136
103	1	137	138
104	2	138	139
105	1	139	140
106	1	141	142
107	2	142	143
108	1	143	144
109	1	145	146
110	2	146	147
111	1	147	148
112	1	149	150
113	2	150	151
114	1	151	152
115	1	153	154
116	2	154	155
117	1	155	156
118	1	157	158
119	2	158	159
120	1	159	160
121	1	161	162
122	2	162	163
123	1	163	164
124	1	165	166
125	2	166	167
126	1	167	168
127	1	169	170
128	2	170	171
129	1	171	172
130	1	173	174
131	2	174	175
132	1	175	176
133	1	177	178
134	2	178	179
135	1	179	180
136	1	181	182
137	2	182	183
138	1	183	184
139	1	185	186
140	2	186	187
141	1	187	188
142	1	189	190
143	2	190	191
144	1	191	192
145	1	193	194
146	2	194	195
147	1	195	196
148	1	197	198
149	2	198	199
150	1	199	200
151	1	201	202
152	2	202	203
153	1	203	204
154	1	205	206
155	2	206	207
156	1	207	208
157	1	209	210
158	2	210	211
159	1	211	212
160	1	213	214
161	2	214	215
162	1	215	216
163	1	217	218
164	2	218	219
165	1	219	220
166	1	221	222
167	2	222	223
168	1	223	224
169	1	225	226
170	2	226	227
171	1	227	228
172	1	229	230
173	2	230	231
174	1	231	232
175	1	233	234
176	2	234	235
177	1	235	236
178	1	237	238
179	2	238	239
180	1	239	240
181	1	241	242
182	2	242	243
183	1	243	244
184	1	245	246
185	2	246	247
186	1	247	248
187	1	249	250
188	2	250	251
189	1	251	252
190	1	253	254
191	2	254	255
192	1	255	256
193	1	257	258
194	2	258	259
195	1	259	260
196	1	261	262
197	2	262	263
198	1	263	264
199	1	265	266
200	2	266	267
201	1	267	268
202	1	269	270
203	2	270	271
204	1	271	272
205	1	273	274
206	2	274	275
207	1	275	276
208	1	277	278
209	2	278	279
210	1	279	280
211	1	281	282
212	2	282	283
213	1	283	284
214	1	285	286
215	2	286	287
216	1	287	288
217	1	289	290
218	2	290	291
219	1	291	292
220	1	293	294
221	2	294	295
222	1	295	296
223	1	297	298
224	2	298	299
225	1	299	300
226	1	301	302
227	2	302	303
228	1	303	304
229	1	305	306
230	2	306	307
231	1	307	308
232	1	309	310
233	2	310	311
234	1	311	312
235	1	313	314
236	2	314	315
237	1	315	316
238	1	317	318
239	2	318	319
240	1	319	320
241	1	321	322
242	2	322	323
243	1	323	324
244	1	325	326
245	2	326	327
246	1	327	328
247	1	329	330
248	2	330	331
249	1	331	332
250	1	333	334
251	2	334	335
252	1	335	336