# data file for 100 EtOCS precursors with porosity capabilities 
-4 53 xlo xhi
-4 53 ylo yhi
-4 53 zlo zhi

733 atoms
300 bonds
200 angles
100 dihedrals

3 atom types
3 bond types
1 angle types
11 dihedral types

Masses

	1	28
	2	16
	3	12

Angle Coeffs

	1	3.38	109.5185

Bond Coeffs

	1	20	1.9000
	2	20	1.5384
	3	20	1.5227

Dihedral Coeffs

	1	opls	0.3750	-0.2000	0.6250	-0.1000
	2	opls	0.0179	-0.0075	0.0613	-0.0025
	3	opls	0.0169	-0.0034	0.0596	-0.0029
	4	opls	0.0061	-0.0064	0.0680	-0.0032
	5	opls	5.1866	-0.7573	0.1955	-0.0484
	6	opls	0.0865	-0.0347	0.1369	0.0009
	7	opls	0.0260	-0.0152	0.0313	-0.0022
	8	class2	0.0035	180.0000	0.0027	180.0000	0.0293	0.0000
	9	class2	0.0000	0.0000	0.0107	180.0000	0.0000	0.0000
	10	class2	5.5263	0.0000	0.0530	-180.0000	-0.4549	0.0000
	11	class2	-0.0021	180.0000	0.0068	-180.0000	0.0249	180.0000

MiddleBondTorsion Coeffs

	1	opls
	2	opls
	3	opls
	4	opls
	5	opls
	6	opls
	7	opls
	8	class2	0	0	0	0
	9	class2	0	0	0	0
	10	class2	0	0	0	0
	11	class2	0	0	0	0

EndBondTorsion Coeffs

	1	opls
	2	opls
	3	opls
	4	opls
	5	opls
	6	opls
	7	opls
	8	class2	0	0	0	0	0	0	0	0
	9	class2	0	0	0	0	0	0	0	0
	10	class2	0	0	0	0	0	0	0	0
	11	class2	0	0	0	0	0	0	0	0

AngleTorsion Coeffs

	1	opls
	2	opls
	3	opls
	4	opls
	5	opls
	6	opls
	7	opls
	8	class2	0	0	0	0	0	0	0	0
	9	class2	0	0	0	0	0	0	0	0
	10	class2	0	0	0	0	0	0	0	0
	11	class2	0	0	0	0	0	0	0	0

AngleAngleTorsion Coeffs

	1	opls
	2	opls
	3	opls
	4	opls
	5	opls
	6	opls
	7	opls
	8	class2	0	0	0
	9	class2	0	0	0
	10	class2	0	0	0
	11	class2	0	0	0

BondBond13 Coeffs

	1	opls
	2	opls
	3	opls
	4	opls
	5	opls
	6	opls
	7	opls
	8	class2	0	0	0
	9	class2	0	0	0
	10	class2	0	0	0
	11	class2	0	0	0

Atoms

1	1	1	4	31.1388	33.6630	4.9707
2	1	3	0	31.1388	33.6630	6.8707
3	1	3	0	31.1388	35.1130	7.3847
4	1	1	4	31.1388	35.1130	9.2847
5	2	1	4	26.0989	40.2807	3.9859
6	2	3	0	26.0989	40.2807	5.8859
7	2	3	0	26.0989	41.7307	6.3999
8	2	1	4	26.0989	41.7307	8.2999
9	3	1	4	5.0386	10.7940	5.5700
10	3	3	0	5.0386	10.7940	7.4700
11	3	3	0	5.0386	12.2440	7.9840
12	3	1	4	5.0386	12.2440	9.8840
13	4	1	4	31.9646	44.4347	39.0394
14	4	3	0	31.9646	44.4347	40.9394
15	4	3	0	31.9646	45.8847	41.4534
16	4	1	4	31.9646	45.8847	43.3534
17	5	1	4	42.7884	42.3090	14.9338
18	5	3	0	42.7884	42.3090	16.8338
19	5	3	0	42.7884	43.7590	17.3478
20	5	1	4	42.7884	43.7590	19.2478
21	6	1	4	28.8963	23.2851	34.0645
22	6	3	0	28.8963	23.2851	35.9645
23	6	3	0	28.8963	24.7351	36.4785
24	6	1	4	28.8963	24.7351	38.3785
25	7	1	4	31.1770	25.5797	11.6716
26	7	3	0	31.1770	25.5797	13.5716
27	7	3	0	31.1770	27.0297	14.0856
28	7	1	4	31.1770	27.0297	15.9856
29	8	1	4	0.2483	27.8905	6.8763
30	8	3	0	0.2483	27.8905	8.7763
31	8	3	0	0.2483	29.3405	9.2903
32	8	1	4	0.2483	29.3405	11.1903
33	9	1	4	19.5786	18.4603	33.6090
34	9	3	0	19.5786	18.4603	35.5090
35	9	3	0	19.5786	19.9103	36.0230
36	9	1	4	19.5786	19.9103	37.9230
37	10	1	4	2.3888	28.6334	42.1662
38	10	3	0	2.3888	28.6334	44.0662
39	10	3	0	2.3888	30.0834	44.5802
40	10	1	4	2.3888	30.0834	46.4802
41	11	1	4	18.5885	37.4073	37.4822
42	11	3	0	18.5885	37.4073	39.3822
43	11	3	0	18.5885	38.8573	39.8962
44	11	1	4	18.5885	38.8573	41.7962
45	12	1	4	7.5265	7.6836	41.2221
46	12	3	0	7.5265	7.6836	43.1221
47	12	3	0	7.5265	9.1336	43.6361
48	12	1	4	7.5265	9.1336	45.5361
49	13	1	4	17.1592	31.0857	40.8547
50	13	3	0	17.1592	31.0857	42.7547
51	13	3	0	17.1592	32.5357	43.2687
52	13	1	4	17.1592	32.5357	45.1687
53	14	1	4	33.8491	44.3231	3.7402
54	14	3	0	33.8491	44.3231	5.6402
55	14	3	0	33.8491	45.7731	6.1542
56	14	1	4	33.8491	45.7731	8.0542
57	15	1	4	11.3506	3.4427	23.3673
58	15	3	0	11.3506	3.4427	25.2673
59	15	3	0	11.3506	4.8927	25.7813
60	15	1	4	11.3506	4.8927	27.6813
61	16	1	4	39.8092	35.1727	37.6884
62	16	3	0	39.8092	35.1727	39.5884
63	16	3	0	39.8092	36.6227	40.1024
64	16	1	4	39.8092	36.6227	42.0024
65	17	1	4	1.0595	36.2650	37.0068
66	17	3	0	1.0595	36.2650	38.9068
67	17	3	0	1.0595	37.7150	39.4208
68	17	1	4	1.0595	37.7150	41.3208
69	18	1	4	20.3359	33.4434	40.6537
70	18	3	0	20.3359	33.4434	42.5537
71	18	3	0	20.3359	34.8934	43.0677
72	18	1	4	20.3359	34.8934	44.9677
73	19	1	4	12.2632	6.0780	5.6783
74	19	3	0	12.2632	6.0780	7.5783
75	19	3	0	12.2632	7.5280	8.0923
76	19	1	4	12.2632	7.5280	9.9923
77	20	1	4	0.8228	17.4838	3.6069
78	20	3	0	0.8228	17.4838	5.5069
79	20	3	0	0.8228	18.9338	6.0209
80	20	1	4	0.8228	18.9338	7.9209
81	21	1	4	30.4285	28.2325	3.5427
82	21	3	0	30.4285	28.2325	5.4427
83	21	3	0	30.4285	29.6825	5.9567
84	21	1	4	30.4285	29.6825	7.8567
85	22	1	4	38.5457	4.8927	11.9897
86	22	3	0	38.5457	4.8927	13.8897
87	22	3	0	38.5457	6.3427	14.4037
88	22	1	4	38.5457	6.3427	16.3037
89	23	1	4	24.7541	17.6711	13.4628
90	23	3	0	24.7541	17.6711	15.3628
91	23	3	0	24.7541	19.1211	15.8768
92	23	1	4	24.7541	19.1211	17.7768
93	24	1	4	9.1320	5.7766	40.5401
94	24	3	0	9.1320	5.7766	42.4401
95	24	3	0	9.1320	7.2266	42.9541
96	24	1	4	9.1320	7.2266	44.8541
97	25	1	4	43.7639	35.2442	21.6840
98	25	3	0	43.7639	35.2442	23.5840
99	25	3	0	43.7639	36.6942	24.0980
100	25	1	4	43.7639	36.6942	25.9980
101	26	1	4	9.1982	22.1608	43.9173
102	26	3	0	9.1982	22.1608	45.8173
103	26	3	0	9.1982	23.6108	46.3313
104	26	1	4	9.1982	23.6108	48.2313
105	27	1	4	16.3227	17.1182	40.9513
106	27	3	0	16.3227	17.1182	42.8513
107	27	3	0	16.3227	18.5682	43.3653
108	27	1	4	16.3227	18.5682	45.2653
109	28	1	4	28.3573	20.2570	19.1649
110	28	3	0	28.3573	20.2570	21.0649
111	28	3	0	28.3573	21.7070	21.5789
112	28	1	4	28.3573	21.7070	23.4789
113	29	1	4	18.1797	12.6793	30.4304
114	29	3	0	18.1797	12.6793	32.3304
115	29	3	0	18.1797	14.1293	32.8444
116	29	1	4	18.1797	14.1293	34.7444
117	30	1	4	7.9405	12.5991	37.7221
118	30	3	0	7.9405	12.5991	39.6221
119	30	3	0	7.9405	14.0491	40.1361
120	30	1	4	7.9405	14.0491	42.0361
121	31	1	4	5.3118	19.7896	32.4183
122	31	3	0	5.3118	19.7896	34.3183
123	31	3	0	5.3118	21.2396	34.8323
124	31	1	4	5.3118	21.2396	36.7323
125	32	1	4	22.2699	19.9565	0.8576
126	32	3	0	22.2699	19.9565	2.7576
127	32	3	0	22.2699	21.4065	3.2716
128	32	1	4	22.2699	21.4065	5.1716
129	33	1	4	17.9515	6.9118	19.3188
130	33	3	0	17.9515	6.9118	21.2188
131	33	3	0	17.9515	8.3618	21.7328
132	33	1	4	17.9515	8.3618	23.6328
133	34	1	4	10.9659	10.6848	8.9758
134	34	3	0	10.9659	10.6848	10.8758
135	34	3	0	10.9659	12.1348	11.3898
136	34	1	4	10.9659	12.1348	13.2898
137	35	1	4	28.6706	24.4789	22.0834
138	35	3	0	28.6706	24.4789	23.9834
139	35	3	0	28.6706	25.9289	24.4974
140	35	1	4	28.6706	25.9289	26.3974
141	36	1	4	17.3502	35.2254	4.0218
142	36	3	0	17.3502	35.2254	5.9218
143	36	3	0	17.3502	36.6754	6.4358
144	36	1	4	17.3502	36.6754	8.3358
145	37	1	4	2.4320	7.5881	6.4864
146	37	3	0	2.4320	7.5881	8.3864
147	37	3	0	2.4320	9.0381	8.9004
148	37	1	4	2.4320	9.0381	10.8004
149	38	1	4	35.0525	31.1840	19.0690
150	38	3	0	35.0525	31.1840	20.9690
151	38	3	0	35.0525	32.6340	21.4830
152	38	1	4	35.0525	32.6340	23.3830
153	39	1	4	38.8378	34.8662	43.6510
154	39	3	0	38.8378	34.8662	45.5510
155	39	3	0	38.8378	36.3162	46.0650
156	39	1	4	38.8378	36.3162	47.9650
157	40	1	4	32.0440	38.6961	16.1204
158	40	3	0	32.0440	38.6961	18.0204
159	40	3	0	32.0440	40.1461	18.5344
160	40	1	4	32.0440	40.1461	20.4344
161	41	1	4	26.5190	18.7728	22.4533
162	41	3	0	26.5190	18.7728	24.3533
163	41	3	0	26.5190	20.2228	24.8673
164	41	1	4	26.5190	20.2228	26.7673
165	42	1	4	7.9932	34.0070	3.5703
166	42	3	0	7.9932	34.0070	5.4703
167	42	3	0	7.9932	35.4570	5.9843
168	42	1	4	7.9932	35.4570	7.8843
169	43	1	4	18.9326	43.3301	1.4666
170	43	3	0	18.9326	43.3301	3.3666
171	43	3	0	18.9326	44.7801	3.8806
172	43	1	4	18.9326	44.7801	5.7806
173	44	1	4	15.5310	34.3126	30.1905
174	44	3	0	15.5310	34.3126	32.0905
175	44	3	0	15.5310	35.7626	32.6045
176	44	1	4	15.5310	35.7626	34.5045
177	45	1	4	19.5213	2.3261	6.3239
178	45	3	0	19.5213	2.3261	8.2239
179	45	3	0	19.5213	3.7761	8.7379
180	45	1	4	19.5213	3.7761	10.6379
181	46	1	4	38.0656	22.1918	39.3948
182	46	3	0	38.0656	22.1918	41.2948
183	46	3	0	38.0656	23.6418	41.8088
184	46	1	4	38.0656	23.6418	43.7088
185	47	1	4	1.6944	0.6389	18.3471
186	47	3	0	1.6944	0.6389	20.2471
187	47	3	0	1.6944	2.0889	20.7611
188	47	1	4	1.6944	2.0889	22.6611
189	48	1	4	10.3404	36.4052	1.1111
190	48	3	0	10.3404	36.4052	3.0111
191	48	3	0	10.3404	37.8552	3.5251
192	48	1	4	10.3404	37.8552	5.4251
193	49	1	4	17.9572	18.0135	41.8392
194	49	3	0	17.9572	18.0135	43.7392
195	49	3	0	17.9572	19.4635	44.2532
196	49	1	4	17.9572	19.4635	46.1532
197	50	1	4	11.9304	4.9103	25.6169
198	50	3	0	11.9304	4.9103	27.5169
199	50	3	0	11.9304	6.3603	28.0309
200	50	1	4	11.9304	6.3603	29.9309
201	51	1	4	39.5879	28.6354	37.9011
202	51	3	0	39.5879	28.6354	39.8011
203	51	3	0	39.5879	30.0854	40.3151
204	51	1	4	39.5879	30.0854	42.2151
205	52	1	4	20.7669	31.2883	25.5067
206	52	3	0	20.7669	31.2883	27.4067
207	52	3	0	20.7669	32.7383	27.9207
208	52	1	4	20.7669	32.7383	29.8207
209	53	1	4	17.4267	12.6719	28.8942
210	53	3	0	17.4267	12.6719	30.7942
211	53	3	0	17.4267	14.1219	31.3082
212	53	1	4	17.4267	14.1219	33.2082
213	54	1	4	19.5464	26.3932	3.8368
214	54	3	0	19.5464	26.3932	5.7368
215	54	3	0	19.5464	27.8432	6.2508
216	54	1	4	19.5464	27.8432	8.1508
217	55	1	4	35.8944	24.6431	6.0647
218	55	3	0	35.8944	24.6431	7.9647
219	55	3	0	35.8944	26.0931	8.4787
220	55	1	4	35.8944	26.0931	10.3787
221	56	1	4	42.8713	8.0521	31.8761
222	56	3	0	42.8713	8.0521	33.7761
223	56	3	0	42.8713	9.5021	34.2901
224	56	1	4	42.8713	9.5021	36.1901
225	57	1	4	22.3472	1.3626	35.4510
226	57	3	0	22.3472	1.3626	37.3510
227	57	3	0	22.3472	2.8126	37.8650
228	57	1	4	22.3472	2.8126	39.7650
229	58	1	4	21.3443	40.4385	18.0190
230	58	3	0	21.3443	40.4385	19.9190
231	58	3	0	21.3443	41.8885	20.4330
232	58	1	4	21.3443	41.8885	22.3330
233	59	1	4	42.5019	14.6233	35.5694
234	59	3	0	42.5019	14.6233	37.4694
235	59	3	0	42.5019	16.0733	37.9834
236	59	1	4	42.5019	16.0733	39.8834
237	60	1	4	8.7394	12.5634	33.3771
238	60	3	0	8.7394	12.5634	35.2771
239	60	3	0	8.7394	14.0134	35.7911
240	60	1	4	8.7394	14.0134	37.6911
241	61	1	4	42.6240	28.2269	18.8143
242	61	3	0	42.6240	28.2269	20.7143
243	61	3	0	42.6240	29.6769	21.2283
244	61	1	4	42.6240	29.6769	23.1283
245	62	1	4	26.0937	29.5507	6.7306
246	62	3	0	26.0937	29.5507	8.6306
247	62	3	0	26.0937	31.0007	9.1446
248	62	1	4	26.0937	31.0007	11.0446
249	63	1	4	8.8355	14.3503	6.4765
250	63	3	0	8.8355	14.3503	8.3765
251	63	3	0	8.8355	15.8003	8.8905
252	63	1	4	8.8355	15.8003	10.7905
253	64	1	4	0.7709	18.2456	32.6437
254	64	3	0	0.7709	18.2456	34.5437
255	64	3	0	0.7709	19.6956	35.0577
256	64	1	4	0.7709	19.6956	36.9577
257	65	1	4	26.1684	36.1305	42.1921
258	65	3	0	26.1684	36.1305	44.0921
259	65	3	0	26.1684	37.5805	44.6061
260	65	1	4	26.1684	37.5805	46.5061
261	66	1	4	12.5056	12.3226	9.1455
262	66	3	0	12.5056	12.3226	11.0455
263	66	3	0	12.5056	13.7726	11.5595
264	66	1	4	12.5056	13.7726	13.4595
265	67	1	4	30.5788	15.1607	23.3400
266	67	3	0	30.5788	15.1607	25.2400
267	67	3	0	30.5788	16.6107	25.7540
268	67	1	4	30.5788	16.6107	27.6540
269	68	1	4	0.4940	0.0304	22.9661
270	68	3	0	0.4940	0.0304	24.8661
271	68	3	0	0.4940	1.4804	25.3801
272	68	1	4	0.4940	1.4804	27.2801
273	69	1	4	24.5324	29.2977	18.7425
274	69	3	0	24.5324	29.2977	20.6425
275	69	3	0	24.5324	30.7477	21.1565
276	69	1	4	24.5324	30.7477	23.0565
277	70	1	4	36.6123	16.4392	39.5416
278	70	3	0	36.6123	16.4392	41.4416
279	70	3	0	36.6123	17.8892	41.9556
280	70	1	4	36.6123	17.8892	43.8556
281	71	1	4	32.7282	17.1834	26.2925
282	71	3	0	32.7282	17.1834	28.1925
283	71	3	0	32.7282	18.6334	28.7065
284	71	1	4	32.7282	18.6334	30.6065
285	72	1	4	9.6382	12.8465	6.9188
286	72	3	0	9.6382	12.8465	8.8188
287	72	3	0	9.6382	14.2965	9.3328
288	72	1	4	9.6382	14.2965	11.2328
289	73	1	4	8.9506	0.5509	42.4483
290	73	3	0	8.9506	0.5509	44.3483
291	73	3	0	8.9506	2.0009	44.8623
292	73	1	4	8.9506	2.0009	46.7623
293	74	1	4	43.0999	13.1946	4.3979
294	74	3	0	43.0999	13.1946	6.2979
295	74	3	0	43.0999	14.6446	6.8119
296	74	1	4	43.0999	14.6446	8.7119
297	75	1	4	28.5218	14.6169	29.1435
298	75	3	0	28.5218	14.6169	31.0435
299	75	3	0	28.5218	16.0669	31.5575
300	75	1	4	28.5218	16.0669	33.4575
301	76	1	4	16.0068	25.9490	32.1390
302	76	3	0	16.0068	25.9490	34.0390
303	76	3	0	16.0068	27.3990	34.5530
304	76	1	4	16.0068	27.3990	36.4530
305	77	1	4	16.5164	44.1364	19.1558
306	77	3	0	16.5164	44.1364	21.0558
307	77	3	0	16.5164	45.5864	21.5698
308	77	1	4	16.5164	45.5864	23.4698
309	78	1	4	6.1148	44.4178	43.0119
310	78	3	0	6.1148	44.4178	44.9119
311	78	3	0	6.1148	45.8678	45.4259
312	78	1	4	6.1148	45.8678	47.3259
313	79	1	4	24.6473	35.8747	41.4670
314	79	3	0	24.6473	35.8747	43.3670
315	79	3	0	24.6473	37.3247	43.8810
316	79	1	4	24.6473	37.3247	45.7810
317	80	1	4	8.0568	42.6276	33.2548
318	80	3	0	8.0568	42.6276	35.1548
319	80	3	0	8.0568	44.0776	35.6688
320	80	1	4	8.0568	44.0776	37.5688
321	81	1	4	6.0056	31.2799	30.6767
322	81	3	0	6.0056	31.2799	32.5767
323	81	3	0	6.0056	32.7299	33.0907
324	81	1	4	6.0056	32.7299	34.9907
325	82	1	4	16.7415	31.2230	37.0078
326	82	3	0	16.7415	31.2230	38.9078
327	82	3	0	16.7415	32.6730	39.4218
328	82	1	4	16.7415	32.6730	41.3218
329	83	1	4	39.3859	30.0333	28.0549
330	83	3	0	39.3859	30.0333	29.9549
331	83	3	0	39.3859	31.4833	30.4689
332	83	1	4	39.3859	31.4833	32.3689
333	84	1	4	14.8078	18.1398	26.6791
334	84	3	0	14.8078	18.1398	28.5791
335	84	3	0	14.8078	19.5898	29.0931
336	84	1	4	14.8078	19.5898	30.9931
337	85	1	4	38.0688	42.9849	8.2378
338	85	3	0	38.0688	42.9849	10.1378
339	85	3	0	38.0688	44.4349	10.6518
340	85	1	4	38.0688	44.4349	12.5518
341	86	1	4	26.3488	17.8006	3.6807
342	86	3	0	26.3488	17.8006	5.5807
343	86	3	0	26.3488	19.2506	6.0947
344	86	1	4	26.3488	19.2506	7.9947
345	87	1	4	32.0192	41.9937	14.6478
346	87	3	0	32.0192	41.9937	16.5478
347	87	3	0	32.0192	43.4437	17.0618
348	87	1	4	32.0192	43.4437	18.9618
349	88	1	4	31.7392	9.7014	34.6664
350	88	3	0	31.7392	9.7014	36.5664
351	88	3	0	31.7392	11.1514	37.0804
352	88	1	4	31.7392	11.1514	38.9804
353	89	1	4	30.2986	16.7767	2.8837
354	89	3	0	30.2986	16.7767	4.7837
355	89	3	0	30.2986	18.2267	5.2977
356	89	1	4	30.2986	18.2267	7.1977
357	90	1	4	21.3435	15.4921	39.5312
358	90	3	0	21.3435	15.4921	41.4312
359	90	3	0	21.3435	16.9421	41.9452
360	90	1	4	21.3435	16.9421	43.8452
361	91	1	4	14.0497	8.4687	5.8174
362	91	3	0	14.0497	8.4687	7.7174
363	91	3	0	14.0497	9.9187	8.2314
364	91	1	4	14.0497	9.9187	10.1314
365	92	1	4	33.8516	34.1736	32.8397
366	92	3	0	33.8516	34.1736	34.7397
367	92	3	0	33.8516	35.6236	35.2537
368	92	1	4	33.8516	35.6236	37.1537
369	93	1	4	42.5137	9.1804	30.3136
370	93	3	0	42.5137	9.1804	32.2136
371	93	3	0	42.5137	10.6304	32.7276
372	93	1	4	42.5137	10.6304	34.6276
373	94	1	4	6.5874	29.1754	35.8756
374	94	3	0	6.5874	29.1754	37.7756
375	94	3	0	6.5874	30.6254	38.2896
376	94	1	4	6.5874	30.6254	40.1896
377	95	1	4	9.4542	10.6032	30.7550
378	95	3	0	9.4542	10.6032	32.6550
379	95	3	0	9.4542	12.0532	33.1690
380	95	1	4	9.4542	12.0532	35.0690
381	96	1	4	8.2219	33.4887	30.6137
382	96	3	0	8.2219	33.4887	32.5137
383	96	3	0	8.2219	34.9387	33.0277
384	96	1	4	8.2219	34.9387	34.9277
385	97	1	4	6.5377	38.7463	43.5083
386	97	3	0	6.5377	38.7463	45.4083
387	97	3	0	6.5377	40.1963	45.9223
388	97	1	4	6.5377	40.1963	47.8223
389	98	1	4	36.7154	29.9992	26.2819
390	98	3	0	36.7154	29.9992	28.1819
391	98	3	0	36.7154	31.4492	28.6959
392	98	1	4	36.7154	31.4492	30.5959
393	99	1	4	21.8936	38.1849	3.2783
394	99	3	0	21.8936	38.1849	5.1783
395	99	3	0	21.8936	39.6349	5.6923
396	99	1	4	21.8936	39.6349	7.5923
397	100	1	4	25.9112	27.7240	2.6299
398	100	3	0	25.9112	27.7240	4.5299
399	100	3	0	25.9112	29.1740	5.0439
400	100	1	4	25.9112	29.1740	6.9439
401	0	2	-2	26.7417	25.2554	39.8975
402	0	2	-2	24.7444	16.0141	11.7264
403	0	2	-2	34.0609	18.8805	16.0372
404	0	2	-2	28.2995	23.4276	43.5381
405	0	2	-2	5.2773	18.8563	43.2762
406	0	2	-2	37.4283	38.3023	43.6827
407	0	2	-2	16.7057	41.1297	2.4292
408	0	2	-2	26.3366	12.2937	17.6413
409	0	2	-2	33.3033	18.8163	19.4657
410	0	2	-2	40.2736	39.4669	19.6867
411	0	2	-2	20.9183	25.7273	5.1893
412	0	2	-2	37.6016	15.0568	1.8857
413	0	2	-2	24.1164	24.6110	29.6559
414	0	2	-2	6.2365	36.0009	25.2821
415	0	2	-2	43.9781	13.8774	8.3225
416	0	2	-2	3.8229	15.2577	40.8743
417	0	2	-2	22.7396	23.2508	43.2507
418	0	2	-2	16.2623	43.4664	22.5635
419	0	2	-2	37.4187	24.5193	41.7722
420	0	2	-2	3.0237	31.7696	35.8530
421	0	2	-2	38.7021	1.8895	27.8775
422	0	2	-2	43.4593	6.9866	38.7536
423	0	2	-2	37.8610	1.4337	34.4734
424	0	2	-2	33.3811	34.4749	42.3002
425	0	2	-2	11.8135	44.2512	8.9321
426	0	2	-2	17.7557	14.8643	4.0203
427	0	2	-2	1.5555	17.9974	42.5019
428	0	2	-2	13.3458	16.3649	35.1009
429	0	2	-2	33.0097	29.4253	21.2677
430	0	2	-2	41.3358	5.5695	15.8722
431	0	2	-2	2.6505	17.1335	25.2017
432	0	2	-2	43.9757	6.3366	1.4962
433	0	2	-2	6.7023	16.2838	31.8312
434	0	2	-2	9.9814	30.9034	23.2899
435	0	2	-2	26.0942	41.4661	6.2545
436	0	2	-2	43.4016	44.1752	2.7335
437	0	2	-2	24.4730	7.2320	5.4497
438	0	2	-2	12.1287	15.0847	3.8752
439	0	2	-2	32.9456	9.0681	34.2918
440	0	2	-2	3.8976	6.0571	21.1713
441	0	2	-2	40.1605	0.2952	8.0480
442	0	2	-2	15.8350	9.5603	24.3152
443	0	2	-2	27.1428	26.4304	25.2613
444	0	2	-2	14.7612	17.2647	13.6671
445	0	2	-2	27.0941	39.6425	12.9135
446	0	2	-2	0.5938	3.5458	30.4489
447	0	2	-2	0.7431	35.0198	10.9743
448	0	2	-2	27.7924	13.5182	18.2004
449	0	2	-2	32.6474	12.4072	26.8984
450	0	2	-2	42.8886	13.3445	16.2929
451	0	2	-2	14.8483	29.6882	38.5952
452	0	2	-2	2.9459	43.8238	11.7792
453	0	2	-2	33.3636	9.5287	40.2271
454	0	2	-2	40.5698	27.0254	4.6127
455	0	2	-2	35.8762	34.5133	28.6350
456	0	2	-2	20.7215	41.3532	5.2660
457	0	2	-2	17.2975	43.3299	3.0241
458	0	2	-2	26.4116	40.1941	17.0570
459	0	2	-2	36.3906	21.8721	38.0204
460	0	2	-2	21.6670	20.7926	35.6254
461	0	2	-2	9.2745	17.7036	3.3643
462	0	2	-2	13.1202	27.6716	37.5545
463	0	2	-2	36.8295	2.1253	23.6413
464	0	2	-2	27.6450	24.9778	6.0711
465	0	2	-2	16.1009	5.3032	24.8876
466	0	2	-2	40.5933	0.9105	19.5937
467	0	2	-2	14.1643	29.4249	8.8293
468	0	2	-2	11.5268	36.7469	23.5663
469	0	2	-2	9.6986	42.2803	1.2522
470	0	2	-2	8.3214	14.7767	5.0070
471	0	2	-2	5.6861	1.5123	40.0712
472	0	2	-2	7.3460	32.2214	36.5752
473	0	2	-2	4.4279	21.0141	35.0335
474	0	2	-2	27.2526	36.5465	11.7886
475	0	2	-2	13.4994	36.5501	6.7106
476	0	2	-2	9.2295	6.1898	34.9056
477	0	2	-2	12.4844	17.5888	21.5936
478	0	2	-2	30.6194	35.7859	24.8318
479	0	2	-2	34.9849	32.6218	20.1670
480	0	2	-2	17.7999	0.2758	3.0217
481	0	2	-2	19.0174	42.7154	26.4893
482	0	2	-2	6.2286	17.8344	11.1421
483	0	2	-2	21.2152	34.9128	35.8612
484	0	2	-2	15.3843	37.8489	29.7785
485	0	2	-2	41.6979	12.5628	12.0029
486	0	2	-2	31.1857	26.0272	9.1675
487	0	2	-2	36.2976	37.2560	36.9489
488	0	2	-2	16.7235	7.0692	13.7244
489	0	2	-2	33.1409	9.2643	0.5294
490	0	2	-2	39.7356	25.9787	0.5297
491	0	2	-2	3.3812	3.1918	28.0313
492	0	2	-2	31.9023	31.4294	7.6243
493	0	2	-2	9.9646	18.8518	34.1595
494	0	2	-2	27.0177	35.2305	8.7654
495	0	2	-2	13.3623	2.0430	13.7869
496	0	2	-2	22.1128	33.4126	14.6235
497	0	2	-2	5.8135	15.7569	5.8339
498	0	2	-2	33.1551	6.7780	29.4888
499	0	2	-2	29.8462	34.6960	24.8080
500	0	2	-2	39.6945	14.1088	37.0340
501	0	2	-2	31.5833	41.4327	7.9248
502	0	2	-2	10.9978	13.6171	25.8698
503	0	2	-2	22.0227	30.5468	11.8548
504	0	2	-2	13.6081	2.6126	10.4413
505	0	2	-2	25.0366	0.8019	24.9421
506	0	2	-2	4.0224	8.3436	4.0184
507	0	2	-2	18.3694	28.5356	18.0589
508	0	2	-2	27.3001	20.7888	36.1311
509	0	2	-2	7.5041	40.3091	28.4578
510	0	2	-2	34.1133	21.0745	36.1951
511	0	2	-2	2.8990	13.0174	32.4749
512	0	2	-2	34.6443	0.1518	24.8234
513	0	2	-2	23.4560	43.1000	30.0266
514	0	2	-2	21.5198	17.7728	29.5245
515	0	2	-2	22.0415	29.4610	35.2822
516	0	2	-2	4.5508	17.3249	38.9781
517	0	2	-2	35.5218	27.6561	40.6766
518	0	2	-2	17.0423	19.2879	43.9387
519	0	2	-2	36.8468	42.7645	31.5564
520	0	2	-2	29.9313	43.2730	36.5680
521	0	2	-2	23.7035	18.4897	15.1649
522	0	2	-2	24.6517	29.6059	2.8939
523	0	2	-2	26.5108	44.1745	4.0774
524	0	2	-2	20.5658	9.5321	40.7396
525	0	2	-2	37.3514	24.4251	29.2357
526	0	2	-2	35.5467	38.4505	6.0317
527	0	2	-2	36.6438	30.5058	17.7162
528	0	2	-2	43.2044	32.3544	30.2077
529	0	2	-2	33.2445	17.5292	42.7741
530	0	2	-2	12.2765	4.9979	38.5517
531	0	2	-2	6.3768	10.8840	23.6156
532	0	2	-2	32.6132	14.1578	2.9999
533	0	2	-2	7.7584	43.0612	34.4434
534	0	2	-2	3.8447	25.0996	6.3794
535	0	2	-2	32.3923	10.5630	42.9503
536	0	2	-2	30.8843	22.6438	15.6647
537	0	2	-2	8.6721	31.8581	31.2148
538	0	2	-2	15.2367	41.5023	3.2855
539	0	2	-2	33.0090	4.1039	6.0277
540	0	2	-2	14.1589	3.3345	5.2315
541	0	2	-2	10.9130	34.6613	6.7759
542	0	2	-2	11.3820	30.1864	21.5942
543	0	2	-2	0.9479	5.5076	32.0503
544	0	2	-2	39.1790	4.4201	24.7368
545	0	2	-2	6.5773	18.3418	13.1892
546	0	2	-2	37.9639	13.3169	4.3086
547	0	2	-2	12.5725	30.4735	24.9461
548	0	2	-2	34.0716	4.8980	39.7903
549	0	2	-2	41.4780	32.9909	15.8164
550	0	2	-2	6.0758	16.8033	26.5645
551	0	2	-2	35.0340	30.8405	27.4024
552	0	2	-2	33.8791	35.1959	27.5096
553	0	2	-2	27.9609	9.4787	8.7809
554	0	2	-2	37.0365	18.0130	1.9194
555	0	2	-2	19.2271	3.7214	29.8993
556	0	2	-2	43.4362	33.8632	9.9346
557	0	2	-2	37.7718	36.4990	28.9628
558	0	2	-2	21.1877	7.2704	1.8288
559	0	2	-2	2.8405	44.4081	37.4478
560	0	2	-2	43.7150	20.7064	13.1409
561	0	2	-2	42.1950	33.7026	38.0054
562	0	2	-2	38.8068	32.5050	8.3525
563	0	2	-2	36.2630	24.4034	24.3959
564	0	2	-2	14.3290	26.9631	4.8956
565	0	2	-2	1.9363	23.8626	16.4781
566	0	2	-2	27.0792	16.5687	19.6353
567	0	2	-2	35.1800	1.8736	18.7851
568	0	2	-2	30.3536	6.4867	10.9241
569	0	2	-2	1.7982	8.5483	17.4704
570	0	2	-2	23.5862	34.4200	41.8742
571	0	2	-2	7.4712	32.4240	38.5477
572	0	2	-2	31.8849	7.3713	13.9762
573	0	2	-2	39.0969	35.9149	32.0882
574	0	2	-2	31.3797	26.2893	33.3510
575	0	2	-2	10.4750	5.7276	39.3479
576	0	2	-2	16.3545	35.4342	28.5145
577	0	2	-2	3.5866	11.3475	34.0838
578	0	2	-2	18.8759	26.4784	38.0369
579	0	2	-2	41.1947	19.2704	32.1926
580	0	2	-2	1.6527	24.1130	32.0288
581	0	2	-2	16.3399	9.0964	18.3786
582	0	2	-2	6.2763	30.6625	10.2510
583	0	2	-2	10.0735	21.7317	25.1679
584	0	2	-2	6.6735	39.8587	25.1281
585	0	2	-2	17.7434	17.5012	30.0017
586	0	2	-2	27.1644	40.6902	15.4657
587	0	2	-2	42.6453	12.8692	27.2979
588	0	2	-2	17.6637	19.3383	42.8221
589	0	2	-2	30.2742	12.9655	32.3335
590	0	2	-2	25.9235	9.8122	3.4098
591	0	2	-2	20.5840	37.9434	22.4835
592	0	2	-2	13.2152	10.8410	43.6892
593	0	2	-2	5.8586	42.0264	37.4585
594	0	2	-2	32.0844	20.1204	30.0497
595	0	2	-2	12.4562	13.6940	32.2898
596	0	2	-2	10.1644	27.0398	15.6823
597	0	2	-2	34.4452	32.3727	31.2076
598	0	2	-2	19.6885	5.0416	15.8076
599	0	2	-2	12.2474	14.1193	42.7871
600	0	2	-2	0.4106	28.6007	33.7374
601	0	2	-2	7.0875	26.9024	39.0196
602	0	2	-2	42.5350	5.3482	16.4270
603	0	2	-2	43.7180	2.5368	38.8794
604	0	2	-2	6.4312	28.6258	18.0003
605	0	2	-2	33.3261	39.9830	18.0463
606	0	2	-2	22.2070	11.8313	21.8375
607	0	2	-2	23.8658	15.5986	9.3680
608	0	2	-2	40.0583	41.4289	36.1894
609	0	2	-2	1.5852	33.4376	3.0704
610	0	2	-2	3.0150	38.4616	33.5552
611	0	2	-2	40.5580	5.5806	44.4385
612	0	2	-2	44.2362	14.2321	23.5206
613	0	2	-2	41.6759	10.2121	14.5257
614	0	2	-2	2.6523	25.4861	22.7369
615	0	2	-2	9.2158	37.3022	26.4245
616	0	2	-2	1.9852	38.3284	25.4903
617	0	2	-2	7.9962	44.3965	42.9299
618	0	2	-2	15.7797	10.9414	14.8781
619	0	2	-2	25.1254	10.4618	19.6789
620	0	2	-2	25.7162	0.8641	29.6005
621	0	2	-2	24.2520	2.1608	11.3173
622	0	2	-2	1.6818	22.9723	20.6510
623	0	2	-2	40.0563	19.8467	27.9995
624	0	2	-2	27.7852	40.8958	9.2417
625	0	2	-2	38.1414	19.7836	26.5819
626	0	2	-2	26.4610	13.9146	21.7632
627	0	2	-2	14.0569	3.5804	12.3212
628	0	2	-2	37.0817	41.5775	36.5467
629	0	2	-2	28.8866	9.6340	3.2845
630	0	2	-2	24.5717	43.2570	5.6001
631	0	2	-2	11.0648	21.0562	17.0384
632	0	2	-2	38.4511	13.0631	30.1865
633	0	2	-2	33.7927	10.1165	22.3348
634	0	2	-2	9.6852	1.3385	25.7908
635	0	2	-2	26.7503	38.3332	14.3444
636	0	2	-2	24.8292	21.1569	16.1366
637	0	2	-2	13.2928	15.5594	9.6439
638	0	2	-2	11.6138	25.5718	15.8339
639	0	2	-2	4.7159	7.6969	1.9965
640	0	2	-2	0.1271	25.8394	29.3583
641	0	2	-2	40.5360	7.1048	28.2360
642	0	2	-2	43.1175	12.2110	11.6128
643	0	2	-2	43.3855	24.0116	15.7303
644	0	2	-2	5.6513	37.1107	8.5422
645	0	2	-2	32.8753	34.3518	15.1886
646	0	2	-2	36.5985	22.3503	16.0018
647	0	2	-2	25.3434	28.2229	18.8828
648	0	2	-2	19.8761	26.8353	36.0110
649	0	2	-2	35.6539	16.6398	41.8688
650	0	2	-2	7.9437	1.2915	13.0989
651	0	2	-2	11.5658	23.5985	32.7111
652	0	2	-2	29.4959	40.9250	15.8701
653	0	2	-2	35.7181	10.7749	39.6224
654	0	2	-2	11.7159	27.5871	43.0143
655	0	2	-2	14.5221	17.2658	41.1539
656	0	2	-2	11.1391	7.3837	13.8448
657	0	2	-2	19.8673	7.6729	26.9299
658	0	2	-2	0.6750	6.2041	22.7824
659	0	2	-2	41.5702	5.7449	2.2150
660	0	2	-2	42.1723	9.1495	8.1558
661	0	2	-2	12.8286	0.7987	14.4308
662	0	2	-2	7.7643	12.8807	13.0174
663	0	2	-2	2.9358	8.1612	10.5807
664	0	2	-2	33.0762	12.9091	24.8114
665	0	2	-2	19.2754	38.4131	37.0586
666	0	2	-2	4.3281	27.6653	10.6042
667	0	2	-2	8.1637	16.2989	38.5260
668	0	2	-2	9.4343	6.0659	0.8483
669	0	2	-2	43.4192	7.3694	38.1699
670	0	2	-2	25.7654	32.8308	24.3968
671	0	2	-2	33.5733	4.3390	28.5719
672	0	2	-2	12.1370	35.6964	42.3466
673	0	2	-2	18.7386	10.4786	43.5072
674	0	2	-2	40.9188	11.3718	1.9925
675	0	2	-2	6.5066	33.1674	33.6060
676	0	2	-2	31.5749	19.2837	25.2631
677	0	2	-2	29.2536	18.5461	41.5333
678	0	2	-2	15.1108	15.6021	18.2316
679	0	2	-2	29.3517	25.7417	35.9885
680	0	2	-2	26.8044	20.6651	30.8218
681	0	2	-2	5.0859	13.5434	29.9234
682	0	2	-2	25.6571	40.1587	21.0944
683	0	2	-2	39.0404	13.0740	22.9359
684	0	2	-2	20.4318	30.3607	14.9298
685	0	2	-2	11.2502	35.3404	22.0602
686	0	2	-2	17.1978	13.6702	17.1416
687	0	2	-2	41.5770	21.5745	5.5825
688	0	2	-2	33.4936	35.1739	8.6289
689	0	2	-2	16.6463	41.3243	41.6914
690	0	2	-2	23.5669	22.8093	20.8396
691	0	2	-2	39.6854	42.2608	0.0600
692	0	2	-2	26.6544	41.7686	24.2301
693	0	2	-2	44.3270	0.8000	33.2991
694	0	2	-2	20.0462	0.6414	10.3557
695	0	2	-2	18.3918	29.9629	11.2468
696	0	2	-2	11.3634	38.8776	35.2460
697	0	2	-2	4.4575	18.9930	12.8984
698	0	2	-2	23.9581	17.7399	33.6781
699	0	2	-2	32.5333	38.9501	5.7930
700	0	2	-2	26.4629	17.3529	3.9165
701	0	2	-2	44.2607	3.9218	34.5811
702	0	2	-2	35.4428	18.4748	16.4946
703	0	2	-2	39.4059	2.1613	39.1311
704	0	2	-2	21.4908	9.1788	37.8067
705	0	2	-2	24.1481	43.6150	31.1790
706	0	2	-2	17.6983	3.5063	5.9682
707	0	2	-2	27.9334	18.1770	37.0457
708	0	2	-2	12.8332	32.1188	21.8958
709	0	2	-2	21.1079	35.8273	13.1889
710	0	2	-2	38.5533	13.1866	25.4648
711	0	2	-2	0.3524	0.8672	39.9535
712	0	2	-2	15.7493	44.2955	26.6029
713	0	2	-2	0.8330	11.1083	2.1972
714	0	2	-2	31.1489	19.7072	18.0829
715	0	2	-2	25.2646	15.6571	6.0999
716	0	2	-2	40.0041	11.2500	5.1990
717	0	2	-2	17.7217	12.7070	25.0695
718	0	2	-2	42.3010	5.0825	36.8164
719	0	2	-2	26.5499	21.8005	41.6692
720	0	2	-2	5.4743	5.8492	9.6867
721	0	2	-2	42.8453	3.8652	35.5930
722	0	2	-2	40.9657	2.1587	37.2317
723	0	2	-2	35.6262	7.7039	36.5091
724	0	2	-2	42.4685	28.4289	18.0278
725	0	2	-2	18.6138	37.8999	0.4038
726	0	2	-2	8.4843	3.5205	7.7624
727	0	2	-2	22.0823	22.2316	10.3516
728	0	2	-2	26.5229	23.0711	40.0532
729	0	2	-2	39.6977	22.4220	8.1922
730	0	2	-2	22.8463	20.2113	37.8094
731	0	2	-2	41.5197	36.0276	11.9729
732	0	2	-2	38.6887	12.0016	8.8741
733	0	2	-2	16.6205	5.8205	4.3378

Bonds

1	1	1	2
2	2	2	3
3	1	3	4
4	1	5	6
5	2	6	7
6	1	7	8
7	1	9	10
8	2	10	11
9	1	11	12
10	1	13	14
11	2	14	15
12	1	15	16
13	1	17	18
14	2	18	19
15	1	19	20
16	1	21	22
17	2	22	23
18	1	23	24
19	1	25	26
20	2	26	27
21	1	27	28
22	1	29	30
23	2	30	31
24	1	31	32
25	1	33	34
26	2	34	35
27	1	35	36
28	1	37	38
29	2	38	39
30	1	39	40
31	1	41	42
32	2	42	43
33	1	43	44
34	1	45	46
35	2	46	47
36	1	47	48
37	1	49	50
38	2	50	51
39	1	51	52
40	1	53	54
41	2	54	55
42	1	55	56
43	1	57	58
44	2	58	59
45	1	59	60
46	1	61	62
47	2	62	63
48	1	63	64
49	1	65	66
50	2	66	67
51	1	67	68
52	1	69	70
53	2	70	71
54	1	71	72
55	1	73	74
56	2	74	75
57	1	75	76
58	1	77	78
59	2	78	79
60	1	79	80
61	1	81	82
62	2	82	83
63	1	83	84
64	1	85	86
65	2	86	87
66	1	87	88
67	1	89	90
68	2	90	91
69	1	91	92
70	1	93	94
71	2	94	95
72	1	95	96
73	1	97	98
74	2	98	99
75	1	99	100
76	1	101	102
77	2	102	103
78	1	103	104
79	1	105	106
80	2	106	107
81	1	107	108
82	1	109	110
83	2	110	111
84	1	111	112
85	1	113	114
86	2	114	115
87	1	115	116
88	1	117	118
89	2	118	119
90	1	119	120
91	1	121	122
92	2	122	123
93	1	123	124
94	1	125	126
95	2	126	127
96	1	127	128
97	1	129	130
98	2	130	131
99	1	131	132
100	1	133	134
101	2	134	135
102	1	135	136
103	1	137	138
104	2	138	139
105	1	139	140
106	1	141	142
107	2	142	143
108	1	143	144
109	1	145	146
110	2	146	147
111	1	147	148
112	1	149	150
113	2	150	151
114	1	151	152
115	1	153	154
116	2	154	155
117	1	155	156
118	1	157	158
119	2	158	159
120	1	159	160
121	1	161	162
122	2	162	163
123	1	163	164
124	1	165	166
125	2	166	167
126	1	167	168
127	1	169	170
128	2	170	171
129	1	171	172
130	1	173	174
131	2	174	175
132	1	175	176
133	1	177	178
134	2	178	179
135	1	179	180
136	1	181	182
137	2	182	183
138	1	183	184
139	1	185	186
140	2	186	187
141	1	187	188
142	1	189	190
143	2	190	191
144	1	191	192
145	1	193	194
146	2	194	195
147	1	195	196
148	1	197	198
149	2	198	199
150	1	199	200
151	1	201	202
152	2	202	203
153	1	203	204
154	1	205	206
155	2	206	207
156	1	207	208
157	1	209	210
158	2	210	211
159	1	211	212
160	1	213	214
161	2	214	215
162	1	215	216
163	1	217	218
164	2	218	219
165	1	219	220
166	1	221	222
167	2	222	223
168	1	223	224
169	1	225	226
170	2	226	227
171	1	227	228
172	1	229	230
173	2	230	231
174	1	231	232
175	1	233	234
176	2	234	235
177	1	235	236
178	1	237	238
179	2	238	239
180	1	239	240
181	1	241	242
182	2	242	243
183	1	243	244
184	1	245	246
185	2	246	247
186	1	247	248
187	1	249	250
188	2	250	251
189	1	251	252
190	1	253	254
191	2	254	255
192	1	255	256
193	1	257	258
194	2	258	259
195	1	259	260
196	1	261	262
197	2	262	263
198	1	263	264
199	1	265	266
200	2	266	267
201	1	267	268
202	1	269	270
203	2	270	271
204	1	271	272
205	1	273	274
206	2	274	275
207	1	275	276
208	1	277	278
209	2	278	279
210	1	279	280
211	1	281	282
212	2	282	283
213	1	283	284
214	1	285	286
215	2	286	287
216	1	287	288
217	1	289	290
218	2	290	291
219	1	291	292
220	1	293	294
221	2	294	295
222	1	295	296
223	1	297	298
224	2	298	299
225	1	299	300
226	1	301	302
227	2	302	303
228	1	303	304
229	1	305	306
230	2	306	307
231	1	307	308
232	1	309	310
233	2	310	311
234	1	311	312
235	1	313	314
236	2	314	315
237	1	315	316
238	1	317	318
239	2	318	319
240	1	319	320
241	1	321	322
242	2	322	323
243	1	323	324
244	1	325	326
245	2	326	327
246	1	327	328
247	1	329	330
248	2	330	331
249	1	331	332
250	1	333	334
251	2	334	335
252	1	335	336
253	1	337	338
254	2	338	339
255	1	339	340