# data file for 100 EtOCS precursors with porosity capabilities 
-4 54 xlo xhi
-4 54 ylo yhi
-4 54 zlo zhi

800 atoms
300 bonds
200 angles
100 dihedrals

3 atom types
3 bond types
1 angle types
11 dihedral types

Masses

	1	28
	2	16
	3	12

Angle Coeffs

	1	3.38	109.5185

Bond Coeffs

	1	20	1.9000
	2	20	1.5384
	3	20	1.5227

Dihedral Coeffs

	1	opls	0.3750	-0.2000	0.6250	-0.1000
	2	opls	0.0179	-0.0075	0.0613	-0.0025
	3	opls	0.0169	-0.0034	0.0596	-0.0029
	4	opls	0.0061	-0.0064	0.0680	-0.0032
	5	opls	5.1866	-0.7573	0.1955	-0.0484
	6	opls	0.0865	-0.0347	0.1369	0.0009
	7	opls	0.0260	-0.0152	0.0313	-0.0022
	8	class2	0.0035	180.0000	0.0027	180.0000	0.0293	0.0000
	9	class2	0.0000	0.0000	0.0107	180.0000	0.0000	0.0000
	10	class2	5.5263	0.0000	0.0530	-180.0000	-0.4549	0.0000
	11	class2	-0.0021	180.0000	0.0068	-180.0000	0.0249	180.0000

MiddleBondTorsion Coeffs

	1	opls
	2	opls
	3	opls
	4	opls
	5	opls
	6	opls
	7	opls
	8	class2	0	0	0	0
	9	class2	0	0	0	0
	10	class2	0	0	0	0
	11	class2	0	0	0	0

EndBondTorsion Coeffs

	1	opls
	2	opls
	3	opls
	4	opls
	5	opls
	6	opls
	7	opls
	8	class2	0	0	0	0	0	0	0	0
	9	class2	0	0	0	0	0	0	0	0
	10	class2	0	0	0	0	0	0	0	0
	11	class2	0	0	0	0	0	0	0	0

AngleTorsion Coeffs

	1	opls
	2	opls
	3	opls
	4	opls
	5	opls
	6	opls
	7	opls
	8	class2	0	0	0	0	0	0	0	0
	9	class2	0	0	0	0	0	0	0	0
	10	class2	0	0	0	0	0	0	0	0
	11	class2	0	0	0	0	0	0	0	0

AngleAngleTorsion Coeffs

	1	opls
	2	opls
	3	opls
	4	opls
	5	opls
	6	opls
	7	opls
	8	class2	0	0	0
	9	class2	0	0	0
	10	class2	0	0	0
	11	class2	0	0	0

BondBond13 Coeffs

	1	opls
	2	opls
	3	opls
	4	opls
	5	opls
	6	opls
	7	opls
	8	class2	0	0	0
	9	class2	0	0	0
	10	class2	0	0	0
	11	class2	0	0	0

Atoms

1	1	1	4	11.0505	25.9679	31.6365
2	1	3	0	11.0505	25.9679	33.5365
3	1	3	0	11.0505	27.4179	34.0505
4	1	1	4	11.0505	27.4179	35.9505
5	2	1	4	0.8880	25.6082	35.1528
6	2	3	0	0.8880	25.6082	37.0528
7	2	3	0	0.8880	27.0582	37.5668
8	2	1	4	0.8880	27.0582	39.4668
9	3	1	4	30.4271	42.1495	10.3692
10	3	3	0	30.4271	42.1495	12.2692
11	3	3	0	30.4271	43.5995	12.7832
12	3	1	4	30.4271	43.5995	14.6832
13	4	1	4	42.3355	18.6935	6.0339
14	4	3	0	42.3355	18.6935	7.9339
15	4	3	0	42.3355	20.1435	8.4479
16	4	1	4	42.3355	20.1435	10.3479
17	5	1	4	6.5670	26.3913	24.5893
18	5	3	0	6.5670	26.3913	26.4893
19	5	3	0	6.5670	27.8413	27.0033
20	5	1	4	6.5670	27.8413	28.9033
21	6	1	4	14.8500	30.1882	25.9481
22	6	3	0	14.8500	30.1882	27.8481
23	6	3	0	14.8500	31.6382	28.3621
24	6	1	4	14.8500	31.6382	30.2621
25	7	1	4	45.4475	35.0623	37.5465
26	7	3	0	45.4475	35.0623	39.4465
27	7	3	0	45.4475	36.5123	39.9605
28	7	1	4	45.4475	36.5123	41.8605
29	8	1	4	19.1667	8.0281	18.8052
30	8	3	0	19.1667	8.0281	20.7052
31	8	3	0	19.1667	9.4781	21.2192
32	8	1	4	19.1667	9.4781	23.1192
33	9	1	4	6.5119	4.9504	14.1620
34	9	3	0	6.5119	4.9504	16.0620
35	9	3	0	6.5119	6.4004	16.5760
36	9	1	4	6.5119	6.4004	18.4760
37	10	1	4	21.3431	29.2742	35.4424
38	10	3	0	21.3431	29.2742	37.3424
39	10	3	0	21.3431	30.7242	37.8564
40	10	1	4	21.3431	30.7242	39.7564
41	11	1	4	43.7667	7.2386	34.7525
42	11	3	0	43.7667	7.2386	36.6525
43	11	3	0	43.7667	8.6886	37.1665
44	11	1	4	43.7667	8.6886	39.0665
45	12	1	4	40.8633	29.8066	14.7126
46	12	3	0	40.8633	29.8066	16.6126
47	12	3	0	40.8633	31.2566	17.1266
48	12	1	4	40.8633	31.2566	19.0266
49	13	1	4	19.2445	35.5695	0.5693
50	13	3	0	19.2445	35.5695	2.4693
51	13	3	0	19.2445	37.0195	2.9833
52	13	1	4	19.2445	37.0195	4.8833
53	14	1	4	29.1054	36.2491	36.7566
54	14	3	0	29.1054	36.2491	38.6566
55	14	3	0	29.1054	37.6991	39.1706
56	14	1	4	29.1054	37.6991	41.0706
57	15	1	4	27.0249	9.4611	44.5206
58	15	3	0	27.0249	9.4611	46.4206
59	15	3	0	27.0249	10.9111	46.9346
60	15	1	4	27.0249	10.9111	48.8346
61	16	1	4	27.0662	6.5825	26.0905
62	16	3	0	27.0662	6.5825	27.9905
63	16	3	0	27.0662	8.0325	28.5045
64	16	1	4	27.0662	8.0325	30.4045
65	17	1	4	5.3225	32.6818	20.2728
66	17	3	0	5.3225	32.6818	22.1728
67	17	3	0	5.3225	34.1318	22.6868
68	17	1	4	5.3225	34.1318	24.5868
69	18	1	4	10.1696	18.2706	29.6452
70	18	3	0	10.1696	18.2706	31.5452
71	18	3	0	10.1696	19.7206	32.0592
72	18	1	4	10.1696	19.7206	33.9592
73	19	1	4	26.1089	18.4583	44.2429
74	19	3	0	26.1089	18.4583	46.1429
75	19	3	0	26.1089	19.9083	46.6569
76	19	1	4	26.1089	19.9083	48.5569
77	20	1	4	42.6786	14.9361	3.0821
78	20	3	0	42.6786	14.9361	4.9821
79	20	3	0	42.6786	16.3861	5.4961
80	20	1	4	42.6786	16.3861	7.3961
81	21	1	4	15.0328	31.9192	11.0951
82	21	3	0	15.0328	31.9192	12.9951
83	21	3	0	15.0328	33.3692	13.5091
84	21	1	4	15.0328	33.3692	15.4091
85	22	1	4	24.1240	10.0575	10.8314
86	22	3	0	24.1240	10.0575	12.7314
87	22	3	0	24.1240	11.5075	13.2454
88	22	1	4	24.1240	11.5075	15.1454
89	23	1	4	32.4880	18.3260	20.7111
90	23	3	0	32.4880	18.3260	22.6111
91	23	3	0	32.4880	19.7760	23.1251
92	23	1	4	32.4880	19.7760	25.0251
93	24	1	4	8.3788	33.1415	8.7765
94	24	3	0	8.3788	33.1415	10.6765
95	24	3	0	8.3788	34.5915	11.1905
96	24	1	4	8.3788	34.5915	13.0905
97	25	1	4	7.0597	25.8827	4.6258
98	25	3	0	7.0597	25.8827	6.5258
99	25	3	0	7.0597	27.3327	7.0398
100	25	1	4	7.0597	27.3327	8.9398
101	26	1	4	25.8260	25.7716	38.4707
102	26	3	0	25.8260	25.7716	40.3707
103	26	3	0	25.8260	27.2216	40.8847
104	26	1	4	25.8260	27.2216	42.7847
105	27	1	4	22.8989	8.2887	31.3986
106	27	3	0	22.8989	8.2887	33.2986
107	27	3	0	22.8989	9.7387	33.8126
108	27	1	4	22.8989	9.7387	35.7126
109	28	1	4	22.7228	39.5552	6.6466
110	28	3	0	22.7228	39.5552	8.5466
111	28	3	0	22.7228	41.0052	9.0606
112	28	1	4	22.7228	41.0052	10.9606
113	29	1	4	19.6783	14.2619	45.1374
114	29	3	0	19.6783	14.2619	47.0374
115	29	3	0	19.6783	15.7119	47.5514
116	29	1	4	19.6783	15.7119	49.4514
117	30	1	4	23.7742	4.1895	22.7284
118	30	3	0	23.7742	4.1895	24.6284
119	30	3	0	23.7742	5.6395	25.1424
120	30	1	4	23.7742	5.6395	27.0424
121	31	1	4	16.1926	23.4567	11.4646
122	31	3	0	16.1926	23.4567	13.3646
123	31	3	0	16.1926	24.9067	13.8786
124	31	1	4	16.1926	24.9067	15.7786
125	32	1	4	14.1460	31.6323	19.4020
126	32	3	0	14.1460	31.6323	21.3020
127	32	3	0	14.1460	33.0823	21.8160
128	32	1	4	14.1460	33.0823	23.7160
129	33	1	4	6.5956	45.4281	30.6321
130	33	3	0	6.5956	45.4281	32.5321
131	33	3	0	6.5956	46.8781	33.0461
132	33	1	4	6.5956	46.8781	34.9461
133	34	1	4	1.6883	27.5203	45.5944
134	34	3	0	1.6883	27.5203	47.4944
135	34	3	0	1.6883	28.9703	48.0084
136	34	1	4	1.6883	28.9703	49.9084
137	35	1	4	8.2627	40.6525	45.1742
138	35	3	0	8.2627	40.6525	47.0742
139	35	3	0	8.2627	42.1025	47.5882
140	35	1	4	8.2627	42.1025	49.4882
141	36	1	4	4.8945	22.9346	34.8540
142	36	3	0	4.8945	22.9346	36.7540
143	36	3	0	4.8945	24.3846	37.2680
144	36	1	4	4.8945	24.3846	39.1680
145	37	1	4	44.4472	11.6748	28.5036
146	37	3	0	44.4472	11.6748	30.4036
147	37	3	0	44.4472	13.1248	30.9176
148	37	1	4	44.4472	13.1248	32.8176
149	38	1	4	28.4476	18.1785	7.3202
150	38	3	0	28.4476	18.1785	9.2202
151	38	3	0	28.4476	19.6285	9.7342
152	38	1	4	28.4476	19.6285	11.6342
153	39	1	4	29.9098	38.4511	10.2214
154	39	3	0	29.9098	38.4511	12.1214
155	39	3	0	29.9098	39.9011	12.6354
156	39	1	4	29.9098	39.9011	14.5354
157	40	1	4	21.7525	28.2062	35.4868
158	40	3	0	21.7525	28.2062	37.3868
159	40	3	0	21.7525	29.6562	37.9008
160	40	1	4	21.7525	29.6562	39.8008
161	41	1	4	43.1508	9.7722	6.4673
162	41	3	0	43.1508	9.7722	8.3673
163	41	3	0	43.1508	11.2222	8.8813
164	41	1	4	43.1508	11.2222	10.7813
165	42	1	4	5.1327	20.4213	15.3593
166	42	3	0	5.1327	20.4213	17.2593
167	42	3	0	5.1327	21.8713	17.7733
168	42	1	4	5.1327	21.8713	19.6733
169	43	1	4	39.1081	8.5647	18.1391
170	43	3	0	39.1081	8.5647	20.0391
171	43	3	0	39.1081	10.0147	20.5531
172	43	1	4	39.1081	10.0147	22.4531
173	44	1	4	29.0979	13.8426	6.3747
174	44	3	0	29.0979	13.8426	8.2747
175	44	3	0	29.0979	15.2926	8.7887
176	44	1	4	29.0979	15.2926	10.6887
177	45	1	4	10.2790	1.2034	27.2943
178	45	3	0	10.2790	1.2034	29.1943
179	45	3	0	10.2790	2.6534	29.7083
180	45	1	4	10.2790	2.6534	31.6083
181	46	1	4	22.6677	5.8884	4.2428
182	46	3	0	22.6677	5.8884	6.1428
183	46	3	0	22.6677	7.3384	6.6568
184	46	1	4	22.6677	7.3384	8.5568
185	47	1	4	16.4542	2.6153	19.5700
186	47	3	0	16.4542	2.6153	21.4700
187	47	3	0	16.4542	4.0653	21.9840
188	47	1	4	16.4542	4.0653	23.8840
189	48	1	4	36.3317	33.5942	15.5530
190	48	3	0	36.3317	33.5942	17.4530
191	48	3	0	36.3317	35.0442	17.9670
192	48	1	4	36.3317	35.0442	19.8670
193	49	1	4	6.2624	27.8748	14.6455
194	49	3	0	6.2624	27.8748	16.5455
195	49	3	0	6.2624	29.3248	17.0595
196	49	1	4	6.2624	29.3248	18.9595
197	50	1	4	24.4822	29.2035	29.0406
198	50	3	0	24.4822	29.2035	30.9406
199	50	3	0	24.4822	30.6535	31.4546
200	50	1	4	24.4822	30.6535	33.3546
201	51	1	4	21.7747	10.7882	3.9613
202	51	3	0	21.7747	10.7882	5.8613
203	51	3	0	21.7747	12.2382	6.3753
204	51	1	4	21.7747	12.2382	8.2753
205	52	1	4	38.2298	40.5230	16.3827
206	52	3	0	38.2298	40.5230	18.2827
207	52	3	0	38.2298	41.9730	18.7967
208	52	1	4	38.2298	41.9730	20.6967
209	53	1	4	35.6427	33.2759	31.8771
210	53	3	0	35.6427	33.2759	33.7771
211	53	3	0	35.6427	34.7259	34.2911
212	53	1	4	35.6427	34.7259	36.1911
213	54	1	4	6.5137	35.0496	22.4118
214	54	3	0	6.5137	35.0496	24.3118
215	54	3	0	6.5137	36.4996	24.8258
216	54	1	4	6.5137	36.4996	26.7258
217	55	1	4	14.4174	44.2278	43.8775
218	55	3	0	14.4174	44.2278	45.7775
219	55	3	0	14.4174	45.6778	46.2915
220	55	1	4	14.4174	45.6778	48.1915
221	56	1	4	26.1279	40.8192	29.8609
222	56	3	0	26.1279	40.8192	31.7609
223	56	3	0	26.1279	42.2692	32.2749
224	56	1	4	26.1279	42.2692	34.1749
225	57	1	4	1.9878	11.2310	21.4675
226	57	3	0	1.9878	11.2310	23.3675
227	57	3	0	1.9878	12.6810	23.8815
228	57	1	4	1.9878	12.6810	25.7815
229	58	1	4	0.4128	45.6730	17.9911
230	58	3	0	0.4128	45.6730	19.8911
231	58	3	0	0.4128	47.1230	20.4051
232	58	1	4	0.4128	47.1230	22.3051
233	59	1	4	41.8534	4.7663	27.8614
234	59	3	0	41.8534	4.7663	29.7614
235	59	3	0	41.8534	6.2163	30.2754
236	59	1	4	41.8534	6.2163	32.1754
237	60	1	4	4.5871	34.8952	39.5005
238	60	3	0	4.5871	34.8952	41.4005
239	60	3	0	4.5871	36.3452	41.9145
240	60	1	4	4.5871	36.3452	43.8145
241	61	1	4	1.3350	42.7151	36.0344
242	61	3	0	1.3350	42.7151	37.9344
243	61	3	0	1.3350	44.1651	38.4484
244	61	1	4	1.3350	44.1651	40.3484
245	62	1	4	27.6441	20.0308	27.7387
246	62	3	0	27.6441	20.0308	29.6387
247	62	3	0	27.6441	21.4808	30.1527
248	62	1	4	27.6441	21.4808	32.0527
249	63	1	4	28.3076	5.3666	18.0388
250	63	3	0	28.3076	5.3666	19.9388
251	63	3	0	28.3076	6.8166	20.4528
252	63	1	4	28.3076	6.8166	22.3528
253	64	1	4	19.0229	43.3167	21.2405
254	64	3	0	19.0229	43.3167	23.1405
255	64	3	0	19.0229	44.7667	23.6545
256	64	1	4	19.0229	44.7667	25.5545
257	65	1	4	34.8179	18.2790	23.8778
258	65	3	0	34.8179	18.2790	25.7778
259	65	3	0	34.8179	19.7290	26.2918
260	65	1	4	34.8179	19.7290	28.1918
261	66	1	4	44.0622	27.6387	34.0754
262	66	3	0	44.0622	27.6387	35.9754
263	66	3	0	44.0622	29.0887	36.4894
264	66	1	4	44.0622	29.0887	38.3894
265	67	1	4	44.5567	2.9366	44.2258
266	67	3	0	44.5567	2.9366	46.1258
267	67	3	0	44.5567	4.3866	46.6398
268	67	1	4	44.5567	4.3866	48.5398
269	68	1	4	39.6417	40.5511	0.3790
270	68	3	0	39.6417	40.5511	2.2790
271	68	3	0	39.6417	42.0011	2.7930
272	68	1	4	39.6417	42.0011	4.6930
273	69	1	4	30.7673	20.8716	26.5269
274	69	3	0	30.7673	20.8716	28.4269
275	69	3	0	30.7673	22.3216	28.9409
276	69	1	4	30.7673	22.3216	30.8409
277	70	1	4	29.2424	10.8496	44.1683
278	70	3	0	29.2424	10.8496	46.0683
279	70	3	0	29.2424	12.2996	46.5823
280	70	1	4	29.2424	12.2996	48.4823
281	71	1	4	40.3480	28.8896	21.5215
282	71	3	0	40.3480	28.8896	23.4215
283	71	3	0	40.3480	30.3396	23.9355
284	71	1	4	40.3480	30.3396	25.8355
285	72	1	4	6.2864	16.6366	31.1416
286	72	3	0	6.2864	16.6366	33.0416
287	72	3	0	6.2864	18.0866	33.5556
288	72	1	4	6.2864	18.0866	35.4556
289	73	1	4	22.4282	35.7982	19.9213
290	73	3	0	22.4282	35.7982	21.8213
291	73	3	0	22.4282	37.2482	22.3353
292	73	1	4	22.4282	37.2482	24.2353
293	74	1	4	16.0531	37.0293	37.5674
294	74	3	0	16.0531	37.0293	39.4674
295	74	3	0	16.0531	38.4793	39.9814
296	74	1	4	16.0531	38.4793	41.8814
297	75	1	4	39.4566	3.3461	15.5394
298	75	3	0	39.4566	3.3461	17.4394
299	75	3	0	39.4566	4.7961	17.9534
300	75	1	4	39.4566	4.7961	19.8534
301	76	1	4	12.7519	44.3271	24.3374
302	76	3	0	12.7519	44.3271	26.2374
303	76	3	0	12.7519	45.7771	26.7514
304	76	1	4	12.7519	45.7771	28.6514
305	77	1	4	28.0708	3.9943	10.1430
306	77	3	0	28.0708	3.9943	12.0430
307	77	3	0	28.0708	5.4443	12.5570
308	77	1	4	28.0708	5.4443	14.4570
309	78	1	4	2.9521	16.7894	44.5020
310	78	3	0	2.9521	16.7894	46.4020
311	78	3	0	2.9521	18.2394	46.9160
312	78	1	4	2.9521	18.2394	48.8160
313	79	1	4	40.3505	19.0584	44.5045
314	79	3	0	40.3505	19.0584	46.4045
315	79	3	0	40.3505	20.5084	46.9185
316	79	1	4	40.3505	20.5084	48.8185
317	80	1	4	8.4777	15.3755	42.0888
318	80	3	0	8.4777	15.3755	43.9888
319	80	3	0	8.4777	16.8255	44.5028
320	80	1	4	8.4777	16.8255	46.4028
321	81	1	4	36.3055	21.2519	33.7868
322	81	3	0	36.3055	21.2519	35.6868
323	81	3	0	36.3055	22.7019	36.2008
324	81	1	4	36.3055	22.7019	38.1008
325	82	1	4	4.9175	26.9005	29.8366
326	82	3	0	4.9175	26.9005	31.7366
327	82	3	0	4.9175	28.3505	32.2506
328	82	1	4	4.9175	28.3505	34.1506
329	83	1	4	36.7119	15.9473	6.3450
330	83	3	0	36.7119	15.9473	8.2450
331	83	3	0	36.7119	17.3973	8.7590
332	83	1	4	36.7119	17.3973	10.6590
333	84	1	4	4.4960	32.5492	24.8228
334	84	3	0	4.4960	32.5492	26.7228
335	84	3	0	4.4960	33.9992	27.2368
336	84	1	4	4.4960	33.9992	29.1368
337	85	1	4	10.0469	27.9074	31.2291
338	85	3	0	10.0469	27.9074	33.1291
339	85	3	0	10.0469	29.3574	33.6431
340	85	1	4	10.0469	29.3574	35.5431
341	86	1	4	15.8900	45.6988	34.3992
342	86	3	0	15.8900	45.6988	36.2992
343	86	3	0	15.8900	47.1488	36.8132
344	86	1	4	15.8900	47.1488	38.7132
345	87	1	4	0.4458	3.5728	34.4609
346	87	3	0	0.4458	3.5728	36.3609
347	87	3	0	0.4458	5.0228	36.8749
348	87	1	4	0.4458	5.0228	38.7749
349	88	1	4	44.8980	45.3461	20.8376
350	88	3	0	44.8980	45.3461	22.7376
351	88	3	0	44.8980	46.7961	23.2516
352	88	1	4	44.8980	46.7961	25.1516
353	89	1	4	40.7886	37.8751	37.1947
354	89	3	0	40.7886	37.8751	39.0947
355	89	3	0	40.7886	39.3251	39.6087
356	89	1	4	40.7886	39.3251	41.5087
357	90	1	4	30.8628	10.1600	39.1639
358	90	3	0	30.8628	10.1600	41.0639
359	90	3	0	30.8628	11.6100	41.5779
360	90	1	4	30.8628	11.6100	43.4779
361	91	1	4	20.4825	13.7226	11.5362
362	91	3	0	20.4825	13.7226	13.4362
363	91	3	0	20.4825	15.1726	13.9502
364	91	1	4	20.4825	15.1726	15.8502
365	92	1	4	5.7608	34.4184	19.3899
366	92	3	0	5.7608	34.4184	21.2899
367	92	3	0	5.7608	35.8684	21.8039
368	92	1	4	5.7608	35.8684	23.7039
369	93	1	4	19.2873	0.6835	20.2378
370	93	3	0	19.2873	0.6835	22.1378
371	93	3	0	19.2873	2.1335	22.6518
372	93	1	4	19.2873	2.1335	24.5518
373	94	1	4	41.6995	13.8540	19.6506
374	94	3	0	41.6995	13.8540	21.5506
375	94	3	0	41.6995	15.3040	22.0646
376	94	1	4	41.6995	15.3040	23.9646
377	95	1	4	12.8452	44.0085	32.0267
378	95	3	0	12.8452	44.0085	33.9267
379	95	3	0	12.8452	45.4585	34.4407
380	95	1	4	12.8452	45.4585	36.3407
381	96	1	4	41.7402	40.9590	33.4207
382	96	3	0	41.7402	40.9590	35.3207
383	96	3	0	41.7402	42.4090	35.8347
384	96	1	4	41.7402	42.4090	37.7347
385	97	1	4	36.6412	29.2838	14.9075
386	97	3	0	36.6412	29.2838	16.8075
387	97	3	0	36.6412	30.7338	17.3215
388	97	1	4	36.6412	30.7338	19.2215
389	98	1	4	13.5284	26.1624	44.0228
390	98	3	0	13.5284	26.1624	45.9228
391	98	3	0	13.5284	27.6124	46.4368
392	98	1	4	13.5284	27.6124	48.3368
393	99	1	4	17.4969	40.1286	33.4416
394	99	3	0	17.4969	40.1286	35.3416
395	99	3	0	17.4969	41.5786	35.8556
396	99	1	4	17.4969	41.5786	37.7556
397	100	1	4	4.8447	36.5365	12.6348
398	100	3	0	4.8447	36.5365	14.5348
399	100	3	0	4.8447	37.9865	15.0488
400	100	1	4	4.8447	37.9865	16.9488
401	0	2	-2	28.8130	41.2403	27.5556
402	0	2	-2	6.8200	43.1545	22.1693
403	0	2	-2	35.5286	3.8370	36.3392
404	0	2	-2	6.6977	21.9149	1.4285
405	0	2	-2	29.0759	13.5914	10.8592
406	0	2	-2	6.4859	3.2629	20.4823
407	0	2	-2	22.2202	24.1876	7.7796
408	0	2	-2	30.9216	0.5255	4.8806
409	0	2	-2	7.0585	1.7777	45.7745
410	0	2	-2	16.4736	19.4419	4.9369
411	0	2	-2	3.1027	43.0825	6.6910
412	0	2	-2	39.9052	45.5031	44.3785
413	0	2	-2	6.4154	30.4415	42.3266
414	0	2	-2	43.9724	34.1968	36.7522
415	0	2	-2	10.6446	3.8946	10.0504
416	0	2	-2	2.5298	13.8210	36.3805
417	0	2	-2	42.4928	1.1858	2.3651
418	0	2	-2	33.1758	20.9836	23.2473
419	0	2	-2	25.4925	14.1311	41.6768
420	0	2	-2	36.2730	26.0780	35.8366
421	0	2	-2	44.8904	27.1790	2.0837
422	0	2	-2	35.7172	6.3285	3.6002
423	0	2	-2	38.4878	0.2853	17.9034
424	0	2	-2	36.4153	1.0881	13.0570
425	0	2	-2	2.9821	40.1112	35.4224
426	0	2	-2	12.6125	35.7992	14.4118
427	0	2	-2	32.4908	6.3098	29.5664
428	0	2	-2	21.1080	36.8743	9.3012
429	0	2	-2	3.8296	16.6876	5.1306
430	0	2	-2	23.3806	24.4574	39.0929
431	0	2	-2	20.6308	23.4437	41.1172
432	0	2	-2	7.7655	22.4012	25.8288
433	0	2	-2	40.5453	25.4306	22.2072
434	0	2	-2	5.5638	37.4297	39.1091
435	0	2	-2	15.3697	16.3436	30.1960
436	0	2	-2	3.2526	19.0888	25.0303
437	0	2	-2	36.7584	24.3414	13.3575
438	0	2	-2	38.2049	27.9745	4.7115
439	0	2	-2	20.4314	38.4034	14.4874
440	0	2	-2	27.9965	15.3187	0.1444
441	0	2	-2	19.4141	6.4068	33.6117
442	0	2	-2	45.3589	26.1040	44.8157
443	0	2	-2	19.5908	29.0082	39.7126
444	0	2	-2	22.6733	32.4975	25.1827
445	0	2	-2	4.4066	4.8113	15.2904
446	0	2	-2	22.6251	19.7032	32.9495
447	0	2	-2	12.4988	41.8077	22.1879
448	0	2	-2	8.7914	42.6520	18.9603
449	0	2	-2	5.0684	12.7930	43.1502
450	0	2	-2	37.6111	3.2317	3.0619
451	0	2	-2	40.6416	42.4509	29.0186
452	0	2	-2	27.0437	13.4942	37.2646
453	0	2	-2	9.2689	12.2099	11.8475
454	0	2	-2	9.3894	1.0726	34.0400
455	0	2	-2	30.3306	17.3401	22.4042
456	0	2	-2	23.3015	27.7515	29.6077
457	0	2	-2	3.3765	17.7597	28.1016
458	0	2	-2	34.9003	44.8302	38.4122
459	0	2	-2	25.2325	3.2648	5.9519
460	0	2	-2	41.9302	25.5718	20.6526
461	0	2	-2	33.0355	7.1252	11.4510
462	0	2	-2	13.6747	10.5219	15.2806
463	0	2	-2	13.7063	4.7472	30.7582
464	0	2	-2	44.6078	17.9387	6.3739
465	0	2	-2	22.8138	40.2849	17.1774
466	0	2	-2	23.2394	11.6801	25.7338
467	0	2	-2	16.7103	28.6407	41.2228
468	0	2	-2	20.5781	7.7927	6.8600
469	0	2	-2	34.4719	26.2135	37.8977
470	0	2	-2	0.4942	26.9462	37.3830
471	0	2	-2	10.9723	4.4707	12.3863
472	0	2	-2	44.6683	19.3770	39.8447
473	0	2	-2	44.9734	16.7947	26.7422
474	0	2	-2	17.6772	3.1060	31.1562
475	0	2	-2	45.5094	40.3862	11.4314
476	0	2	-2	25.9121	34.9355	11.3655
477	0	2	-2	16.7084	4.0794	39.5892
478	0	2	-2	6.1014	13.1078	38.7588
479	0	2	-2	38.1885	33.7089	32.0344
480	0	2	-2	7.5828	42.2785	41.7853
481	0	2	-2	34.3675	12.7086	15.3778
482	0	2	-2	18.5759	17.8605	31.7987
483	0	2	-2	42.0834	27.8595	44.1164
484	0	2	-2	42.5006	20.7915	33.8204
485	0	2	-2	30.9796	32.4046	11.4449
486	0	2	-2	14.7794	8.3465	12.9488
487	0	2	-2	9.2243	41.8280	15.1644
488	0	2	-2	9.4818	18.4786	24.6018
489	0	2	-2	45.2235	37.9722	5.7414
490	0	2	-2	29.2783	1.1008	0.3658
491	0	2	-2	25.8616	1.1630	33.0906
492	0	2	-2	38.0049	7.1870	22.9553
493	0	2	-2	45.1756	36.2884	35.1277
494	0	2	-2	35.0219	43.9280	26.2835
495	0	2	-2	32.1575	34.6493	44.8979
496	0	2	-2	18.7113	34.3619	9.7170
497	0	2	-2	21.2374	2.6800	7.2034
498	0	2	-2	18.5630	11.8568	33.2499
499	0	2	-2	40.7603	34.3049	23.2442
500	0	2	-2	12.7274	14.7643	43.1414
501	0	2	-2	3.8651	7.2805	30.0721
502	0	2	-2	8.2641	31.5637	7.2359
503	0	2	-2	32.6447	31.5066	39.5291
504	0	2	-2	14.5055	29.3161	41.0175
505	0	2	-2	0.0609	21.2943	40.7813
506	0	2	-2	36.2963	14.8063	17.3426
507	0	2	-2	11.8082	43.8369	0.6307
508	0	2	-2	32.3933	6.2242	38.5339
509	0	2	-2	5.5536	11.4471	19.3586
510	0	2	-2	2.1446	31.9871	43.2595
511	0	2	-2	29.4100	23.9205	30.1672
512	0	2	-2	17.0472	0.6205	14.3320
513	0	2	-2	28.9166	38.3345	45.5002
514	0	2	-2	10.7034	43.5394	9.4205
515	0	2	-2	23.0202	5.7809	11.7898
516	0	2	-2	20.4988	43.1436	14.5648
517	0	2	-2	18.5728	42.7746	25.1831
518	0	2	-2	43.2683	28.3995	35.6651
519	0	2	-2	3.8644	6.6301	35.8345
520	0	2	-2	12.3278	16.7554	29.6077
521	0	2	-2	1.0861	42.6644	34.6309
522	0	2	-2	25.4735	34.1526	29.8298
523	0	2	-2	14.6131	20.2179	3.4435
524	0	2	-2	8.3201	28.4446	21.5667
525	0	2	-2	45.3225	33.2868	15.9950
526	0	2	-2	13.0765	37.9877	5.2112
527	0	2	-2	37.7572	18.6838	37.5264
528	0	2	-2	32.4007	9.1208	15.1335
529	0	2	-2	0.5536	0.8301	9.3185
530	0	2	-2	22.1072	37.8860	41.4438
531	0	2	-2	5.3404	33.7767	6.2134
532	0	2	-2	0.5886	21.1036	20.4486
533	0	2	-2	43.4475	19.8535	4.5258
534	0	2	-2	2.8808	3.0694	13.1672
535	0	2	-2	39.0699	17.3838	3.1834
536	0	2	-2	1.6947	42.1442	4.5010
537	0	2	-2	21.4118	45.4369	13.5453
538	0	2	-2	17.1787	43.4971	37.4006
539	0	2	-2	32.6623	16.8571	29.2205
540	0	2	-2	42.7132	19.3256	19.3973
541	0	2	-2	8.2856	16.4838	5.2211
542	0	2	-2	2.3021	21.0483	18.0724
543	0	2	-2	33.2939	13.0504	27.1427
544	0	2	-2	24.3469	1.2737	15.2786
545	0	2	-2	37.3478	30.4063	44.0235
546	0	2	-2	41.0875	2.4431	4.4529
547	0	2	-2	21.6354	12.6281	14.0232
548	0	2	-2	4.4204	12.6484	10.2680
549	0	2	-2	21.5015	35.4743	39.0678
550	0	2	-2	2.8564	22.3037	10.2741
551	0	2	-2	2.6383	40.7635	44.1874
552	0	2	-2	29.7308	27.6254	26.8334
553	0	2	-2	38.9868	1.1704	28.7131
554	0	2	-2	23.7265	24.2821	35.2226
555	0	2	-2	8.8115	16.6296	16.9352
556	0	2	-2	0.7037	38.1473	27.4191
557	0	2	-2	40.2542	7.4935	7.8948
558	0	2	-2	10.9550	39.9357	22.3984
559	0	2	-2	17.1149	8.9675	23.1036
560	0	2	-2	9.9974	8.3313	21.9923
561	0	2	-2	15.2208	8.8213	26.0460
562	0	2	-2	7.9020	34.7222	18.1077
563	0	2	-2	4.0675	15.1492	2.3149
564	0	2	-2	17.9276	25.2095	23.2086
565	0	2	-2	42.5742	10.5033	10.3300
566	0	2	-2	20.0742	43.0781	9.6893
567	0	2	-2	40.1815	19.8423	44.5821
568	0	2	-2	33.6735	20.0120	35.0189
569	0	2	-2	15.0261	45.3625	32.7821
570	0	2	-2	7.5523	27.8641	33.5806
571	0	2	-2	26.7111	9.3092	13.7124
572	0	2	-2	14.3106	33.1248	40.5246
573	0	2	-2	32.2120	17.5225	15.2903
574	0	2	-2	7.3542	31.7983	32.2333
575	0	2	-2	28.7047	24.0642	30.0855
576	0	2	-2	21.5166	6.5917	16.6039
577	0	2	-2	25.9717	16.9064	8.2139
578	0	2	-2	11.1110	22.1793	31.5399
579	0	2	-2	17.4544	33.1315	11.4393
580	0	2	-2	30.4055	19.0615	21.1316
581	0	2	-2	13.8377	45.5084	9.2041
582	0	2	-2	34.1615	20.6070	34.7545
583	0	2	-2	17.9883	38.6546	9.8049
584	0	2	-2	35.9539	6.2570	16.7239
585	0	2	-2	32.4485	2.2457	41.0119
586	0	2	-2	17.9223	24.2847	9.2040
587	0	2	-2	27.3418	3.0228	41.4737
588	0	2	-2	26.4416	42.2424	9.1515
589	0	2	-2	6.2038	19.9822	36.8364
590	0	2	-2	31.2254	45.1947	22.5623
591	0	2	-2	22.8283	22.9995	25.6094
592	0	2	-2	1.2615	17.9316	0.6489
593	0	2	-2	19.0771	40.1116	29.5206
594	0	2	-2	43.2413	2.1624	42.7282
595	0	2	-2	34.9370	30.7553	13.1468
596	0	2	-2	42.4713	2.8240	3.6964
597	0	2	-2	32.3696	24.3785	44.8670
598	0	2	-2	15.7673	41.0514	41.7604
599	0	2	-2	32.6660	13.7905	1.2777
600	0	2	-2	12.0232	0.0614	18.4284
601	0	2	-2	5.9781	13.2312	10.6032
602	0	2	-2	34.2954	37.0647	40.2438
603	0	2	-2	2.8760	25.7719	15.0178
604	0	2	-2	24.0606	2.2491	24.3298
605	0	2	-2	10.3141	30.0593	26.9899
606	0	2	-2	44.7602	6.2480	45.6644
607	0	2	-2	19.8790	20.5764	11.9500
608	0	2	-2	15.6671	16.2427	15.2425
609	0	2	-2	12.6014	37.3051	10.6869
610	0	2	-2	19.0347	27.8845	22.2709
611	0	2	-2	10.9157	12.4849	38.7121
612	0	2	-2	22.5640	31.9856	11.2887
613	0	2	-2	3.9699	25.5158	10.3085
614	0	2	-2	0.0373	23.1896	20.9139
615	0	2	-2	40.4230	28.4521	18.2955
616	0	2	-2	11.4681	34.6550	14.8365
617	0	2	-2	6.5037	30.4086	38.5478
618	0	2	-2	26.7835	7.0281	18.2841
619	0	2	-2	37.8234	30.3944	35.5583
620	0	2	-2	27.1456	1.3560	7.1537
621	0	2	-2	12.0420	17.7411	43.6929
622	0	2	-2	22.4421	33.5206	20.4036
623	0	2	-2	30.2812	11.1470	9.9060
624	0	2	-2	29.7746	38.7972	18.9005
625	0	2	-2	32.9044	30.1269	20.2067
626	0	2	-2	33.6737	30.9778	19.5194
627	0	2	-2	4.1689	24.6656	8.0295
628	0	2	-2	27.5128	14.5117	0.7528
629	0	2	-2	2.4715	24.6808	26.0046
630	0	2	-2	38.4298	23.3909	44.6891
631	0	2	-2	36.9764	42.3570	44.7044
632	0	2	-2	29.5834	26.0612	43.8742
633	0	2	-2	24.5852	33.9192	36.9525
634	0	2	-2	18.5018	45.1793	16.2806
635	0	2	-2	36.6952	4.4954	16.6163
636	0	2	-2	35.7536	25.1363	39.3376
637	0	2	-2	13.1300	40.2588	19.2773
638	0	2	-2	35.3479	36.1529	37.9687
639	0	2	-2	8.9593	9.5369	12.2177
640	0	2	-2	39.7545	12.6847	19.6238
641	0	2	-2	19.2011	1.7205	14.5265
642	0	2	-2	14.8201	15.0930	15.3186
643	0	2	-2	30.2386	35.8163	43.8114
644	0	2	-2	40.1848	10.3912	38.9878
645	0	2	-2	30.3314	21.7967	20.7542
646	0	2	-2	33.5590	32.4899	15.1396
647	0	2	-2	27.6997	4.4743	33.5557
648	0	2	-2	9.1003	41.9047	10.2118
649	0	2	-2	34.1528	23.2603	28.1966
650	0	2	-2	30.2673	15.1869	2.0109
651	0	2	-2	29.7248	11.9621	20.6196
652	0	2	-2	8.1604	37.0455	23.6211
653	0	2	-2	44.5698	29.3281	0.3246
654	0	2	-2	20.6696	11.5849	3.7098
655	0	2	-2	26.0154	43.1921	26.7745
656	0	2	-2	38.8185	9.9233	42.3627
657	0	2	-2	22.4750	42.4926	3.1391
658	0	2	-2	15.1279	28.6938	14.0395
659	0	2	-2	0.9380	9.7808	18.8117
660	0	2	-2	15.5120	21.7116	43.2352
661	0	2	-2	32.2170	3.2971	44.3377
662	0	2	-2	45.0642	17.9354	22.6575
663	0	2	-2	34.8669	11.4108	7.7880
664	0	2	-2	27.1849	36.9416	33.7354
665	0	2	-2	10.3821	26.5194	40.2977
666	0	2	-2	21.9967	24.7119	23.9600
667	0	2	-2	11.9064	42.3358	27.9781
668	0	2	-2	7.4130	20.7217	10.8562
669	0	2	-2	36.0722	34.3382	32.6308
670	0	2	-2	37.0998	12.6680	36.2275
671	0	2	-2	27.7193	23.3441	38.8386
672	0	2	-2	17.8889	15.8837	31.9589
673	0	2	-2	15.1158	29.4606	25.6295
674	0	2	-2	37.8839	11.8061	44.5548
675	0	2	-2	5.5980	22.9519	15.5837
676	0	2	-2	39.6790	23.8766	6.5525
677	0	2	-2	2.5431	9.6728	40.6033
678	0	2	-2	30.7356	2.4194	23.4160
679	0	2	-2	36.3405	41.9979	10.8935
680	0	2	-2	25.9707	11.7282	27.6982
681	0	2	-2	28.0687	4.6412	33.9292
682	0	2	-2	30.3991	37.4574	15.2571
683	0	2	-2	7.1075	29.5316	21.8936
684	0	2	-2	32.8789	19.9168	16.9786
685	0	2	-2	12.1165	37.3170	34.7975
686	0	2	-2	4.2929	1.2947	9.0065
687	0	2	-2	21.0988	8.8333	4.3278
688	0	2	-2	22.7266	2.4254	21.2591
689	0	2	-2	38.2986	6.9907	14.4680
690	0	2	-2	31.4210	39.3354	19.5422
691	0	2	-2	2.5206	22.0725	2.0917
692	0	2	-2	41.9466	10.5027	32.1352
693	0	2	-2	2.1681	29.7700	31.8122
694	0	2	-2	38.8179	9.9639	41.1836
695	0	2	-2	12.3941	3.0910	36.2001
696	0	2	-2	17.1468	26.6049	11.2801
697	0	2	-2	0.4878	38.0485	27.5285
698	0	2	-2	27.1168	43.3709	4.6521
699	0	2	-2	31.5960	19.5281	6.8542
700	0	2	-2	12.6418	22.3801	1.9608
701	0	2	-2	42.2225	16.8375	21.7423
702	0	2	-2	0.6689	25.5410	6.2137
703	0	2	-2	24.3165	38.1704	5.9843
704	0	2	-2	9.3765	10.9514	18.9688
705	0	2	-2	25.5938	19.4773	40.8937
706	0	2	-2	38.2346	5.8075	23.1822
707	0	2	-2	38.5559	18.7061	31.4892
708	0	2	-2	5.5758	20.7212	3.7117
709	0	2	-2	1.7595	44.6808	12.2843
710	0	2	-2	43.6314	38.1525	20.3090
711	0	2	-2	35.7134	2.9626	25.7878
712	0	2	-2	2.6053	34.5017	19.0510
713	0	2	-2	22.0372	32.2445	28.4358
714	0	2	-2	32.6645	33.5168	19.6117
715	0	2	-2	3.7843	32.9946	31.4016
716	0	2	-2	34.8253	18.3608	20.3683
717	0	2	-2	17.1490	23.0762	35.7810
718	0	2	-2	36.6315	15.9939	40.5894
719	0	2	-2	2.2551	13.2996	16.2496
720	0	2	-2	36.1255	42.6061	7.6489
721	0	2	-2	19.2666	26.0913	17.5535
722	0	2	-2	2.3098	11.7601	2.9337
723	0	2	-2	24.4977	14.2541	15.7432
724	0	2	-2	11.1914	36.8347	0.0349
725	0	2	-2	41.6114	3.2093	17.1847
726	0	2	-2	21.9734	9.0109	4.8146
727	0	2	-2	16.4366	41.6669	30.1757
728	0	2	-2	13.7275	27.1723	28.5831
729	0	2	-2	10.6097	1.4403	38.2147
730	0	2	-2	8.8060	19.0388	40.4367
731	0	2	-2	32.5829	4.7273	30.3126
732	0	2	-2	7.6794	38.2032	44.7290
733	0	2	-2	22.4083	8.9926	6.6339
734	0	2	-2	10.3432	16.2703	24.0919
735	0	2	-2	15.7654	30.6759	42.5419
736	0	2	-2	3.4094	15.7297	26.8916
737	0	2	-2	15.5261	33.4766	35.7673
738	0	2	-2	7.3067	3.6895	0.5809
739	0	2	-2	8.1974	17.4500	3.2366
740	0	2	-2	21.8827	37.2836	25.7554
741	0	2	-2	4.2976	40.8927	17.1218
742	0	2	-2	9.2699	34.2587	36.2076
743	0	2	-2	3.1039	11.3419	37.4347
744	0	2	-2	28.2124	29.9426	7.4647
745	0	2	-2	0.2636	44.7585	37.3599
746	0	2	-2	35.4171	26.8927	7.0540
747	0	2	-2	9.3769	38.6680	5.4650
748	0	2	-2	40.0934	13.3721	33.2732
749	0	2	-2	31.5815	12.3764	29.6061
750	0	2	-2	9.2694	17.0879	30.3567
751	0	2	-2	17.9307	17.8025	17.7347
752	0	2	-2	23.2705	13.1671	5.6689
753	0	2	-2	5.0502	19.2954	24.2309
754	0	2	-2	40.9545	43.3851	45.6094
755	0	2	-2	42.2140	8.3922	23.4051
756	0	2	-2	16.2829	43.9037	0.0330
757	0	2	-2	16.0476	22.9694	10.2530
758	0	2	-2	32.7236	31.1470	17.9878
759	0	2	-2	39.6326	14.5173	19.5379
760	0	2	-2	40.8960	34.3228	25.7199
761	0	2	-2	17.0740	41.3758	0.9336
762	0	2	-2	0.1485	27.5288	14.1514
763	0	2	-2	28.7812	29.6534	21.0226
764	0	2	-2	21.4919	29.3023	29.6786
765	0	2	-2	8.2880	8.2980	17.8204
766	0	2	-2	19.1614	0.4921	30.0346
767	0	2	-2	28.1437	21.4766	16.8066
768	0	2	-2	29.6654	41.7518	24.1482
769	0	2	-2	35.7380	10.2491	2.9314
770	0	2	-2	17.9978	42.8254	21.5678
771	0	2	-2	12.5482	14.0670	3.7939
772	0	2	-2	29.3449	41.6413	21.5683
773	0	2	-2	8.0920	16.3131	10.7441
774	0	2	-2	18.3625	18.5122	15.5284
775	0	2	-2	39.9891	23.9981	42.2438
776	0	2	-2	23.8435	28.6671	33.1405
777	0	2	-2	38.9876	6.2475	2.0019
778	0	2	-2	44.7869	8.4268	0.0360
779	0	2	-2	25.5421	43.0154	40.9906
780	0	2	-2	43.8839	4.6268	21.4113
781	0	2	-2	33.9340	9.7971	24.0924
782	0	2	-2	16.2688	5.2274	35.1293
783	0	2	-2	17.1389	43.8109	33.0563
784	0	2	-2	11.8347	31.2979	27.9898
785	0	2	-2	25.9087	8.1476	17.4615
786	0	2	-2	14.4198	19.4317	9.8762
787	0	2	-2	16.1989	8.3951	24.1439
788	0	2	-2	9.6986	41.9115	12.2752
789	0	2	-2	2.9693	31.7817	13.3451
790	0	2	-2	25.0577	24.3006	3.6612
791	0	2	-2	18.5642	1.2057	41.6557
792	0	2	-2	42.3078	6.8973	7.7550
793	0	2	-2	26.4817	27.5576	20.1075
794	0	2	-2	32.9158	14.2647	18.9363
795	0	2	-2	7.7040	12.0005	34.8382
796	0	2	-2	11.3168	21.6831	4.7050
797	0	2	-2	28.2581	30.1343	3.1351
798	0	2	-2	23.8437	38.7465	7.4099
799	0	2	-2	9.9523	9.2056	36.5973
800	0	2	-2	34.6668	0.2416	22.7055

Bonds

1	1	1	2
2	2	2	3
3	1	3	4
4	1	5	6
5	2	6	7
6	1	7	8
7	1	9	10
8	2	10	11
9	1	11	12
10	1	13	14
11	2	14	15
12	1	15	16
13	1	17	18
14	2	18	19
15	1	19	20
16	1	21	22
17	2	22	23
18	1	23	24
19	1	25	26
20	2	26	27
21	1	27	28
22	1	29	30
23	2	30	31
24	1	31	32
25	1	33	34
26	2	34	35
27	1	35	36
28	1	37	38
29	2	38	39
30	1	39	40
31	1	41	42
32	2	42	43
33	1	43	44
34	1	45	46
35	2	46	47
36	1	47	48
37	1	49	50
38	2	50	51
39	1	51	52
40	1	53	54
41	2	54	55
42	1	55	56
43	1	57	58
44	2	58	59
45	1	59	60
46	1	61	62
47	2	62	63
48	1	63	64
49	1	65	66
50	2	66	67
51	1	67	68
52	1	69	70
53	2	70	71
54	1	71	72
55	1	73	74
56	2	74	75
57	1	75	76
58	1	77	78
59	2	78	79
60	1	79	80
61	1	81	82
62	2	82	83
63	1	83	84
64	1	85	86
65	2	86	87
66	1	87	88
67	1	89	90
68	2	90	91
69	1	91	92
70	1	93	94
71	2	94	95
72	1	95	96
73	1	97	98
74	2	98	99
75	1	99	100
76	1	101	102
77	2	102	103
78	1	103	104
79	1	105	106
80	2	106	107
81	1	107	108
82	1	109	110
83	2	110	111
84	1	111	112
85	1	113	114
86	2	114	115