# data file for 100 EtOCS precursors with porosity capabilities 
-4 50 xlo xhi
-4 50 ylo yhi
-4 50 zlo zhi

600 atoms
300 bonds
200 angles
100 dihedrals

3 atom types
3 bond types
1 angle types
11 dihedral types

Masses

	1	28
	2	16
	3	12

Angle Coeffs

	1	3.38	109.5185

Bond Coeffs

	1	20	1.9000
	2	20	1.5384
	3	20	1.5227

Dihedral Coeffs

	1	opls	0.3750	-0.2000	0.6250	-0.1000
	2	opls	0.0179	-0.0075	0.0613	-0.0025
	3	opls	0.0169	-0.0034	0.0596	-0.0029
	4	opls	0.0061	-0.0064	0.0680	-0.0032
	5	opls	5.1866	-0.7573	0.1955	-0.0484
	6	opls	0.0865	-0.0347	0.1369	0.0009
	7	opls	0.0260	-0.0152	0.0313	-0.0022
	8	class2	0.0035	180.0000	0.0027	180.0000	0.0293	0.0000
	9	class2	0.0000	0.0000	0.0107	180.0000	0.0000	0.0000
	10	class2	5.5263	0.0000	0.0530	-180.0000	-0.4549	0.0000
	11	class2	-0.0021	180.0000	0.0068	-180.0000	0.0249	180.0000

MiddleBondTorsion Coeffs

	1	opls
	2	opls
	3	opls
	4	opls
	5	opls
	6	opls
	7	opls
	8	class2	0	0	0	0
	9	class2	0	0	0	0
	10	class2	0	0	0	0
	11	class2	0	0	0	0

EndBondTorsion Coeffs

	1	opls
	2	opls
	3	opls
	4	opls
	5	opls
	6	opls
	7	opls
	8	class2	0	0	0	0	0	0	0	0
	9	class2	0	0	0	0	0	0	0	0
	10	class2	0	0	0	0	0	0	0	0
	11	class2	0	0	0	0	0	0	0	0

AngleTorsion Coeffs

	1	opls
	2	opls
	3	opls
	4	opls
	5	opls
	6	opls
	7	opls
	8	class2	0	0	0	0	0	0	0	0
	9	class2	0	0	0	0	0	0	0	0
	10	class2	0	0	0	0	0	0	0	0
	11	class2	0	0	0	0	0	0	0	0

AngleAngleTorsion Coeffs

	1	opls
	2	opls
	3	opls
	4	opls
	5	opls
	6	opls
	7	opls
	8	class2	0	0	0
	9	class2	0	0	0
	10	class2	0	0	0
	11	class2	0	0	0

BondBond13 Coeffs

	1	opls
	2	opls
	3	opls
	4	opls
	5	opls
	6	opls
	7	opls
	8	class2	0	0	0
	9	class2	0	0	0
	10	class2	0	0	0
	11	class2	0	0	0

Atoms

1	1	1	4	2.3531	40.7200	32.5190
2	1	3	0	2.3531	40.7200	34.4190
3	1	3	0	2.3531	42.1700	34.9330
4	1	1	4	2.3531	42.1700	36.8330
5	2	1	4	35.7714	24.1015	3.9405
6	2	3	0	35.7714	24.1015	5.8405
7	2	3	0	35.7714	25.5515	6.3545
8	2	1	4	35.7714	25.5515	8.2545
9	3	1	4	1.3404	25.2325	7.3752
10	3	3	0	1.3404	25.2325	9.2752
11	3	3	0	1.3404	26.6825	9.7892
12	3	1	4	1.3404	26.6825	11.6892
13	4	1	4	20.2802	24.0628	10.3664
14	4	3	0	20.2802	24.0628	12.2664
15	4	3	0	20.2802	25.5128	12.7804
16	4	1	4	20.2802	25.5128	14.6804
17	5	1	4	22.9060	29.1876	10.9509
18	5	3	0	22.9060	29.1876	12.8509
19	5	3	0	22.9060	30.6376	13.3649
20	5	1	4	22.9060	30.6376	15.2649
21	6	1	4	38.4419	35.9650	10.3147
22	6	3	0	38.4419	35.9650	12.2147
23	6	3	0	38.4419	37.4150	12.7287
24	6	1	4	38.4419	37.4150	14.6287
25	7	1	4	40.1767	10.8092	1.2874
26	7	3	0	40.1767	10.8092	3.1874
27	7	3	0	40.1767	12.2592	3.7014
28	7	1	4	40.1767	12.2592	5.6014
29	8	1	4	39.4090	22.9839	6.2822
30	8	3	0	39.4090	22.9839	8.1822
31	8	3	0	39.4090	24.4339	8.6962
32	8	1	4	39.4090	24.4339	10.5962
33	9	1	4	27.8112	30.2889	9.2160
34	9	3	0	27.8112	30.2889	11.1160
35	9	3	0	27.8112	31.7389	11.6300
36	9	1	4	27.8112	31.7389	13.5300
37	10	1	4	15.6553	20.9543	16.2938
38	10	3	0	15.6553	20.9543	18.1938
39	10	3	0	15.6553	22.4043	18.7078
40	10	1	4	15.6553	22.4043	20.6078
41	11	1	4	40.8201	33.2061	37.2307
42	11	3	0	40.8201	33.2061	39.1307
43	11	3	0	40.8201	34.6561	39.6447
44	11	1	4	40.8201	34.6561	41.5447
45	12	1	4	20.3094	10.0861	10.3357
46	12	3	0	20.3094	10.0861	12.2357
47	12	3	0	20.3094	11.5361	12.7497
48	12	1	4	20.3094	11.5361	14.6497
49	13	1	4	4.4942	29.2659	28.6877
50	13	3	0	4.4942	29.2659	30.5877
51	13	3	0	4.4942	30.7159	31.1017
52	13	1	4	4.4942	30.7159	33.0017
53	14	1	4	23.0664	21.7158	40.6245
54	14	3	0	23.0664	21.7158	42.5245
55	14	3	0	23.0664	23.1658	43.0385
56	14	1	4	23.0664	23.1658	44.9385
57	15	1	4	29.1144	32.7363	30.8363
58	15	3	0	29.1144	32.7363	32.7363
59	15	3	0	29.1144	34.1863	33.2503
60	15	1	4	29.1144	34.1863	35.1503
61	16	1	4	19.1775	1.8091	34.6765
62	16	3	0	19.1775	1.8091	36.5765
63	16	3	0	19.1775	3.2591	37.0905
64	16	1	4	19.1775	3.2591	38.9905
65	17	1	4	4.6951	19.9082	19.5525
66	17	3	0	4.6951	19.9082	21.4525
67	17	3	0	4.6951	21.3582	21.9665
68	17	1	4	4.6951	21.3582	23.8665
69	18	1	4	25.8414	39.7755	27.6712
70	18	3	0	25.8414	39.7755	29.5712
71	18	3	0	25.8414	41.2255	30.0852
72	18	1	4	25.8414	41.2255	31.9852
73	19	1	4	26.8187	23.3826	11.2620
74	19	3	0	26.8187	23.3826	13.1620
75	19	3	0	26.8187	24.8326	13.6760
76	19	1	4	26.8187	24.8326	15.5760
77	20	1	4	8.4784	26.7258	1.4614
78	20	3	0	8.4784	26.7258	3.3614
79	20	3	0	8.4784	28.1758	3.8754
80	20	1	4	8.4784	28.1758	5.7754
81	21	1	4	7.5775	3.8716	36.5089
82	21	3	0	7.5775	3.8716	38.4089
83	21	3	0	7.5775	5.3216	38.9229
84	21	1	4	7.5775	5.3216	40.8229
85	22	1	4	28.2519	30.8457	5.3942
86	22	3	0	28.2519	30.8457	7.2942
87	22	3	0	28.2519	32.2957	7.8082
88	22	1	4	28.2519	32.2957	9.7082
89	23	1	4	30.8338	8.3866	22.8295
90	23	3	0	30.8338	8.3866	24.7295
91	23	3	0	30.8338	9.8366	25.2435
92	23	1	4	30.8338	9.8366	27.1435
93	24	1	4	4.6497	3.2680	1.3544
94	24	3	0	4.6497	3.2680	3.2544
95	24	3	0	4.6497	4.7180	3.7684
96	24	1	4	4.6497	4.7180	5.6684
97	25	1	4	7.0914	40.8710	27.5359
98	25	3	0	7.0914	40.8710	29.4359
99	25	3	0	7.0914	42.3210	29.9499
100	25	1	4	7.0914	42.3210	31.8499
101	26	1	4	38.3827	37.2410	4.1543
102	26	3	0	38.3827	37.2410	6.0543
103	26	3	0	38.3827	38.6910	6.5683
104	26	1	4	38.3827	38.6910	8.4683
105	27	1	4	21.1128	24.6825	6.9777
106	27	3	0	21.1128	24.6825	8.8777
107	27	3	0	21.1128	26.1325	9.3917
108	27	1	4	21.1128	26.1325	11.2917
109	28	1	4	31.7518	37.1372	33.5049
110	28	3	0	31.7518	37.1372	35.4049
111	28	3	0	31.7518	38.5872	35.9189
112	28	1	4	31.7518	38.5872	37.8189
113	29	1	4	8.4166	11.2997	40.8615
114	29	3	0	8.4166	11.2997	42.7615
115	29	3	0	8.4166	12.7497	43.2755
116	29	1	4	8.4166	12.7497	45.1755
117	30	1	4	14.1320	34.7930	25.5104
118	30	3	0	14.1320	34.7930	27.4104
119	30	3	0	14.1320	36.2430	27.9244
120	30	1	4	14.1320	36.2430	29.8244
121	31	1	4	39.2799	17.8765	5.3464
122	31	3	0	39.2799	17.8765	7.2464
123	31	3	0	39.2799	19.3265	7.7604
124	31	1	4	39.2799	19.3265	9.6604
125	32	1	4	28.6703	10.4316	5.7362
126	32	3	0	28.6703	10.4316	7.6362
127	32	3	0	28.6703	11.8816	8.1502
128	32	1	4	28.6703	11.8816	10.0502
129	33	1	4	10.6791	10.4694	2.8420
130	33	3	0	10.6791	10.4694	4.7420
131	33	3	0	10.6791	11.9194	5.2560
132	33	1	4	10.6791	11.9194	7.1560
133	34	1	4	21.6685	6.2467	17.6203
134	34	3	0	21.6685	6.2467	19.5203
135	34	3	0	21.6685	7.6967	20.0343
136	34	1	4	21.6685	7.6967	21.9343
137	35	1	4	38.4133	38.4558	15.9268
138	35	3	0	38.4133	38.4558	17.8268
139	35	3	0	38.4133	39.9058	18.3408
140	35	1	4	38.4133	39.9058	20.2408
141	36	1	4	28.1961	7.6438	35.2109
142	36	3	0	28.1961	7.6438	37.1109
143	36	3	0	28.1961	9.0938	37.6249
144	36	1	4	28.1961	9.0938	39.5249
145	37	1	4	11.6569	3.8068	30.5150
146	37	3	0	11.6569	3.8068	32.4150
147	37	3	0	11.6569	5.2568	32.9290
148	37	1	4	11.6569	5.2568	34.8290
149	38	1	4	7.2054	39.3543	13.9482
150	38	3	0	7.2054	39.3543	15.8482
151	38	3	0	7.2054	40.8043	16.3622
152	38	1	4	7.2054	40.8043	18.2622
153	39	1	4	40.7711	12.1741	22.2498
154	39	3	0	40.7711	12.1741	24.1498
155	39	3	0	40.7711	13.6241	24.6638
156	39	1	4	40.7711	13.6241	26.5638
157	40	1	4	38.9936	36.7757	28.7642
158	40	3	0	38.9936	36.7757	30.6642
159	40	3	0	38.9936	38.2257	31.1782
160	40	1	4	38.9936	38.2257	33.0782
161	41	1	4	11.6986	35.3046	8.1316
162	41	3	0	11.6986	35.3046	10.0316
163	41	3	0	11.6986	36.7546	10.5456
164	41	1	4	11.6986	36.7546	12.4456
165	42	1	4	16.4189	29.5590	39.4151
166	42	3	0	16.4189	29.5590	41.3151
167	42	3	0	16.4189	31.0090	41.8291
168	42	1	4	16.4189	31.0090	43.7291
169	43	1	4	14.7737	10.2793	19.7793
170	43	3	0	14.7737	10.2793	21.6793
171	43	3	0	14.7737	11.7293	22.1933
172	43	1	4	14.7737	11.7293	24.0933
173	44	1	4	9.2461	18.4718	6.4105
174	44	3	0	9.2461	18.4718	8.3105
175	44	3	0	9.2461	19.9218	8.8245
176	44	1	4	9.2461	19.9218	10.7245
177	45	1	4	3.4858	21.2616	10.5349
178	45	3	0	3.4858	21.2616	12.4349
179	45	3	0	3.4858	22.7116	12.9489
180	45	1	4	3.4858	22.7116	14.8489
181	46	1	4	24.0870	26.6702	40.7604
182	46	3	0	24.0870	26.6702	42.6604
183	46	3	0	24.0870	28.1202	43.1744
184	46	1	4	24.0870	28.1202	45.0744
185	47	1	4	7.5436	2.2146	9.4851
186	47	3	0	7.5436	2.2146	11.3851
187	47	3	0	7.5436	3.6646	11.8991
188	47	1	4	7.5436	3.6646	13.7991
189	48	1	4	21.4420	25.2821	14.1762
190	48	3	0	21.4420	25.2821	16.0762
191	48	3	0	21.4420	26.7321	16.5902
192	48	1	4	21.4420	26.7321	18.4902
193	49	1	4	18.5514	8.9022	20.1518
194	49	3	0	18.5514	8.9022	22.0518
195	49	3	0	18.5514	10.3522	22.5658
196	49	1	4	18.5514	10.3522	24.4658
197	50	1	4	17.2184	36.9397	32.8417
198	50	3	0	17.2184	36.9397	34.7417
199	50	3	0	17.2184	38.3897	35.2557
200	50	1	4	17.2184	38.3897	37.1557
201	51	1	4	20.5252	9.6895	38.9336
202	51	3	0	20.5252	9.6895	40.8336
203	51	3	0	20.5252	11.1395	41.3476
204	51	1	4	20.5252	11.1395	43.2476
205	52	1	4	0.2558	22.0119	12.6929
206	52	3	0	0.2558	22.0119	14.5929
207	52	3	0	0.2558	23.4619	15.1069
208	52	1	4	0.2558	23.4619	17.0069
209	53	1	4	2.7186	6.2964	21.7628
210	53	3	0	2.7186	6.2964	23.6628
211	53	3	0	2.7186	7.7464	24.1768
212	53	1	4	2.7186	7.7464	26.0768
213	54	1	4	11.9854	17.5414	28.0860
214	54	3	0	11.9854	17.5414	29.9860
215	54	3	0	11.9854	18.9914	30.5000
216	54	1	4	11.9854	18.9914	32.4000
217	55	1	4	3.5863	3.8119	17.2842
218	55	3	0	3.5863	3.8119	19.1842
219	55	3	0	3.5863	5.2619	19.6982
220	55	1	4	3.5863	5.2619	21.5982
221	56	1	4	28.5396	39.2459	25.3182
222	56	3	0	28.5396	39.2459	27.2182
223	56	3	0	28.5396	40.6959	27.7322
224	56	1	4	28.5396	40.6959	29.6322
225	57	1	4	7.6348	8.7216	6.0040
226	57	3	0	7.6348	8.7216	7.9040
227	57	3	0	7.6348	10.1716	8.4180
228	57	1	4	7.6348	10.1716	10.3180
229	58	1	4	11.6347	35.5056	6.0838
230	58	3	0	11.6347	35.5056	7.9838
231	58	3	0	11.6347	36.9556	8.4978
232	58	1	4	11.6347	36.9556	10.3978
233	59	1	4	5.5639	16.7491	25.2550
234	59	3	0	5.5639	16.7491	27.1550
235	59	3	0	5.5639	18.1991	27.6690
236	59	1	4	5.5639	18.1991	29.5690
237	60	1	4	20.2818	34.0914	23.7184
238	60	3	0	20.2818	34.0914	25.6184
239	60	3	0	20.2818	35.5414	26.1324
240	60	1	4	20.2818	35.5414	28.0324
241	61	1	4	5.5508	38.5018	24.0384
242	61	3	0	5.5508	38.5018	25.9384
243	61	3	0	5.5508	39.9518	26.4524
244	61	1	4	5.5508	39.9518	28.3524
245	62	1	4	18.5475	20.3278	24.4645
246	62	3	0	18.5475	20.3278	26.3645
247	62	3	0	18.5475	21.7778	26.8785
248	62	1	4	18.5475	21.7778	28.7785
249	63	1	4	10.7984	1.4415	23.1833
250	63	3	0	10.7984	1.4415	25.0833
251	63	3	0	10.7984	2.8915	25.5973
252	63	1	4	10.7984	2.8915	27.4973
253	64	1	4	25.6429	1.6119	29.8490
254	64	3	0	25.6429	1.6119	31.7490
255	64	3	0	25.6429	3.0619	32.2630
256	64	1	4	25.6429	3.0619	34.1630
257	65	1	4	19.0130	28.5490	11.5275
258	65	3	0	19.0130	28.5490	13.4275
259	65	3	0	19.0130	29.9990	13.9415
260	65	1	4	19.0130	29.9990	15.8415
261	66	1	4	33.0745	29.5427	4.5638
262	66	3	0	33.0745	29.5427	6.4638
263	66	3	0	33.0745	30.9927	6.9778
264	66	1	4	33.0745	30.9927	8.8778
265	67	1	4	6.3249	14.9517	14.9386
266	67	3	0	6.3249	14.9517	16.8386
267	67	3	0	6.3249	16.4017	17.3526
268	67	1	4	6.3249	16.4017	19.2526
269	68	1	4	7.2581	20.2617	5.5595
270	68	3	0	7.2581	20.2617	7.4595
271	68	3	0	7.2581	21.7117	7.9735
272	68	1	4	7.2581	21.7117	9.8735
273	69	1	4	10.2399	1.5421	5.0945
274	69	3	0	10.2399	1.5421	6.9945
275	69	3	0	10.2399	2.9921	7.5085
276	69	1	4	10.2399	2.9921	9.4085
277	70	1	4	15.6313	20.8930	8.9517
278	70	3	0	15.6313	20.8930	10.8517
279	70	3	0	15.6313	22.3430	11.3657
280	70	1	4	15.6313	22.3430	13.2657
281	71	1	4	5.8153	39.9567	24.6727
282	71	3	0	5.8153	39.9567	26.5727
283	71	3	0	5.8153	41.4067	27.0867
284	71	1	4	5.8153	41.4067	28.9867
285	72	1	4	38.4840	1.2365	29.7244
286	72	3	0	38.4840	1.2365	31.6244
287	72	3	0	38.4840	2.6865	32.1384
288	72	1	4	38.4840	2.6865	34.0384
289	73	1	4	39.3031	9.3645	14.7768
290	73	3	0	39.3031	9.3645	16.6768
291	73	3	0	39.3031	10.8145	17.1908
292	73	1	4	39.3031	10.8145	19.0908
293	74	1	4	23.8933	14.2579	40.7885
294	74	3	0	23.8933	14.2579	42.6885
295	74	3	0	23.8933	15.7079	43.2025
296	74	1	4	23.8933	15.7079	45.1025
297	75	1	4	12.5865	25.2119	6.9104
298	75	3	0	12.5865	25.2119	8.8104
299	75	3	0	12.5865	26.6619	9.3244
300	75	1	4	12.5865	26.6619	11.2244
301	76	1	4	30.5707	3.9269	40.1535
302	76	3	0	30.5707	3.9269	42.0535
303	76	3	0	30.5707	5.3769	42.5675
304	76	1	4	30.5707	5.3769	44.4675
305	77	1	4	20.3563	40.9530	0.5150
306	77	3	0	20.3563	40.9530	2.4150
307	77	3	0	20.3563	42.4030	2.9290
308	77	1	4	20.3563	42.4030	4.8290
309	78	1	4	24.7176	0.9943	13.9380
310	78	3	0	24.7176	0.9943	15.8380
311	78	3	0	24.7176	2.4443	16.3520
312	78	1	4	24.7176	2.4443	18.2520
313	79	1	4	27.6212	24.1762	23.6168
314	79	3	0	27.6212	24.1762	25.5168
315	79	3	0	27.6212	25.6262	26.0308
316	79	1	4	27.6212	25.6262	27.9308
317	80	1	4	4.7783	37.3599	16.5733
318	80	3	0	4.7783	37.3599	18.4733
319	80	3	0	4.7783	38.8099	18.9873
320	80	1	4	4.7783	38.8099	20.8873
321	81	1	4	7.4643	32.3737	17.9155
322	81	3	0	7.4643	32.3737	19.8155
323	81	3	0	7.4643	33.8237	20.3295
324	81	1	4	7.4643	33.8237	22.2295
325	82	1	4	15.8545	1.7876	25.0732
326	82	3	0	15.8545	1.7876	26.9732
327	82	3	0	15.8545	3.2376	27.4872
328	82	1	4	15.8545	3.2376	29.3872
329	83	1	4	12.2565	16.0763	10.8950
330	83	3	0	12.2565	16.0763	12.7950
331	83	3	0	12.2565	17.5263	13.3090
332	83	1	4	12.2565	17.5263	15.2090
333	84	1	4	36.5784	28.1271	29.1449
334	84	3	0	36.5784	28.1271	31.0449
335	84	3	0	36.5784	29.5771	31.5589
336	84	1	4	36.5784	29.5771	33.4589
337	85	1	4	41.5422	5.4753	32.8912
338	85	3	0	41.5422	5.4753	34.7912
339	85	3	0	41.5422	6.9253	35.3052
340	85	1	4	41.5422	6.9253	37.2052
341	86	1	4	37.2405	34.8272	5.9874
342	86	3	0	37.2405	34.8272	7.8874
343	86	3	0	37.2405	36.2772	8.4014
344	86	1	4	37.2405	36.2772	10.3014
345	87	1	4	10.5824	20.2011	20.4551
346	87	3	0	10.5824	20.2011	22.3551
347	87	3	0	10.5824	21.6511	22.8691
348	87	1	4	10.5824	21.6511	24.7691
349	88	1	4	24.5701	5.6741	24.7976
350	88	3	0	24.5701	5.6741	26.6976
351	88	3	0	24.5701	7.1241	27.2116
352	88	1	4	24.5701	7.1241	29.1116
353	89	1	4	38.7874	3.6225	36.7815
354	89	3	0	38.7874	3.6225	38.6815
355	89	3	0	38.7874	5.0725	39.1955
356	89	1	4	38.7874	5.0725	41.0955
357	90	1	4	2.8248	10.9217	33.4145
358	90	3	0	2.8248	10.9217	35.3145
359	90	3	0	2.8248	12.3717	35.8285
360	90	1	4	2.8248	12.3717	37.7285
361	91	1	4	21.9447	4.0924	25.6449
362	91	3	0	21.9447	4.0924	27.5449
363	91	3	0	21.9447	5.5424	28.0589
364	91	1	4	21.9447	5.5424	29.9589
365	92	1	4	14.4263	6.0290	9.0736
366	92	3	0	14.4263	6.0290	10.9736
367	92	3	0	14.4263	7.4790	11.4876
368	92	1	4	14.4263	7.4790	13.3876
369	93	1	4	4.2659	6.5200	26.3881
370	93	3	0	4.2659	6.5200	28.2881
371	93	3	0	4.2659	7.9700	28.8021
372	93	1	4	4.2659	7.9700	30.7021
373	94	1	4	3.9983	12.1005	12.9476
374	94	3	0	3.9983	12.1005	14.8476
375	94	3	0	3.9983	13.5505	15.3616
376	94	1	4	3.9983	13.5505	17.2616
377	95	1	4	13.8478	0.9824	28.8156
378	95	3	0	13.8478	0.9824	30.7156
379	95	3	0	13.8478	2.4324	31.2296
380	95	1	4	13.8478	2.4324	33.1296
381	96	1	4	4.0000	3.5377	0.4622
382	96	3	0	4.0000	3.5377	2.3622
383	96	3	0	4.0000	4.9877	2.8762
384	96	1	4	4.0000	4.9877	4.7762
385	97	1	4	15.7014	3.4688	16.1366
386	97	3	0	15.7014	3.4688	18.0366
387	97	3	0	15.7014	4.9188	18.5506
388	97	1	4	15.7014	4.9188	20.4506
389	98	1	4	12.7495	23.8928	4.6705
390	98	3	0	12.7495	23.8928	6.5705
391	98	3	0	12.7495	25.3428	7.0845
392	98	1	4	12.7495	25.3428	8.9845
393	99	1	4	36.1399	8.0579	22.5446
394	99	3	0	36.1399	8.0579	24.4446
395	99	3	0	36.1399	9.5079	24.9586
396	99	1	4	36.1399	9.5079	26.8586
397	100	1	4	26.6466	2.5629	17.3294
398	100	3	0	26.6466	2.5629	19.2294
399	100	3	0	26.6466	4.0129	19.7434
400	100	1	4	26.6466	4.0129	21.6434
401	0	2	-2	36.2248	5.5023	7.5307
402	0	2	-2	38.7847	16.4433	41.5630
403	0	2	-2	1.6620	2.9494	33.9549
404	0	2	-2	31.4794	2.2070	5.5665
405	0	2	-2	11.1733	21.0056	13.2579
406	0	2	-2	26.0415	12.1824	27.6537
407	0	2	-2	8.6870	35.5686	14.1983
408	0	2	-2	35.8627	32.6688	15.2911
409	0	2	-2	11.1750	30.6707	30.9641
410	0	2	-2	8.2787	21.2578	11.1149
411	0	2	-2	8.0870	21.6646	40.9817
412	0	2	-2	8.5079	34.5704	16.5120
413	0	2	-2	0.8725	31.3688	2.2410
414	0	2	-2	9.0889	23.8605	36.1971
415	0	2	-2	23.9110	0.7915	37.8061
416	0	2	-2	30.5253	28.3192	19.9178
417	0	2	-2	3.2490	27.7719	12.3866
418	0	2	-2	10.1168	18.9066	39.2121
419	0	2	-2	16.5924	2.9305	38.3246
420	0	2	-2	32.4501	16.3509	24.0300
421	0	2	-2	24.1612	20.9849	23.9307
422	0	2	-2	15.5661	2.3338	7.1265
423	0	2	-2	20.4300	4.5606	3.5044
424	0	2	-2	8.1473	38.8755	13.7811
425	0	2	-2	0.3803	6.7413	37.0508
426	0	2	-2	16.1309	24.9676	13.8802
427	0	2	-2	14.9809	14.8452	39.1824
428	0	2	-2	18.6684	24.4861	32.6839
429	0	2	-2	15.7982	34.9395	37.5559
430	0	2	-2	9.8658	31.6435	24.6747
431	0	2	-2	26.2743	41.1052	39.9371
432	0	2	-2	20.0379	3.0322	26.6046
433	0	2	-2	22.8847	30.0271	25.0327
434	0	2	-2	25.1020	28.3319	13.4881
435	0	2	-2	19.4867	40.4463	39.1794
436	0	2	-2	11.3247	21.3208	7.1578
437	0	2	-2	5.2483	9.6221	22.7787
438	0	2	-2	25.7403	35.4297	20.3427
439	0	2	-2	20.6173	1.3140	26.6808
440	0	2	-2	9.9053	3.1532	1.6545
441	0	2	-2	0.0944	38.0891	24.4542
442	0	2	-2	35.4908	3.7872	38.3574
443	0	2	-2	28.5911	26.3834	25.9314
444	0	2	-2	39.5467	30.1756	9.0236
445	0	2	-2	14.3284	23.2092	32.5245
446	0	2	-2	12.4963	39.7541	18.3371
447	0	2	-2	2.7126	32.6519	1.6308
448	0	2	-2	22.7201	0.5780	17.2456
449	0	2	-2	28.7529	10.2401	2.6273
450	0	2	-2	0.0292	13.7153	27.0904
451	0	2	-2	6.6298	37.1291	13.2078
452	0	2	-2	24.6956	2.6644	21.5905
453	0	2	-2	9.1258	27.6527	19.3801
454	0	2	-2	1.5851	6.0107	31.0223
455	0	2	-2	33.6631	36.6867	24.6964
456	0	2	-2	3.7619	40.3804	35.2481
457	0	2	-2	22.4795	1.6024	8.4953
458	0	2	-2	24.9173	20.9025	19.3785
459	0	2	-2	12.4717	2.3057	17.5625
460	0	2	-2	30.8433	8.4561	10.3178
461	0	2	-2	6.3130	26.4810	9.5353
462	0	2	-2	22.9063	33.4014	6.9248
463	0	2	-2	35.9834	0.6210	38.9236
464	0	2	-2	15.7562	39.9668	13.1570
465	0	2	-2	16.0746	1.1559	34.5561
466	0	2	-2	11.2642	12.0143	1.7233
467	0	2	-2	21.2101	8.8716	24.5142
468	0	2	-2	11.8542	41.5393	13.1798
469	0	2	-2	9.1351	37.2391	30.4358
470	0	2	-2	13.0298	13.2727	6.7694
471	0	2	-2	37.7490	40.4418	27.7532
472	0	2	-2	16.4620	32.8025	22.7133
473	0	2	-2	9.3759	34.2577	11.8263
474	0	2	-2	21.7247	18.3856	11.8084
475	0	2	-2	11.3577	18.5516	4.0091
476	0	2	-2	6.3110	25.5466	1.3876
477	0	2	-2	40.9803	1.9951	7.2031
478	0	2	-2	34.8547	28.8798	37.7612
479	0	2	-2	36.1353	0.0909	31.8507
480	0	2	-2	3.0629	12.1312	7.4935
481	0	2	-2	36.1410	37.7498	1.7863
482	0	2	-2	22.4741	11.9349	12.6770
483	0	2	-2	11.6138	1.1127	6.0978
484	0	2	-2	17.6114	6.2379	11.8154
485	0	2	-2	8.4540	2.6202	7.7343
486	0	2	-2	14.7372	6.1624	18.2684
487	0	2	-2	39.9778	19.0050	24.3858
488	0	2	-2	22.5571	25.3235	41.2518
489	0	2	-2	5.9443	4.3858	14.1239
490	0	2	-2	22.0322	29.5825	16.1437
491	0	2	-2	13.3762	34.6217	29.3056
492	0	2	-2	16.7641	3.7102	3.4188
493	0	2	-2	0.0545	12.8977	28.9947
494	0	2	-2	19.6719	16.6784	40.6406
495	0	2	-2	11.9629	30.7830	5.4556
496	0	2	-2	14.7378	26.8995	0.7187
497	0	2	-2	18.8218	21.5332	32.5309
498	0	2	-2	4.5954	4.4732	13.7067
499	0	2	-2	1.6583	6.1423	32.5583
500	0	2	-2	34.8112	36.5372	8.2749
501	0	2	-2	7.9301	17.4716	6.5937
502	0	2	-2	20.5821	6.7783	23.1516
503	0	2	-2	38.1976	21.8156	11.1898
504	0	2	-2	36.1157	32.2006	6.7612
505	0	2	-2	36.6277	39.7069	29.8682
506	0	2	-2	27.4447	38.2752	17.4938
507	0	2	-2	2.3512	13.0377	5.6303
508	0	2	-2	31.8138	29.8881	6.2621
509	0	2	-2	9.7478	27.4502	30.1596
510	0	2	-2	35.0670	22.9079	13.8836
511	0	2	-2	13.0395	18.1585	14.8458
512	0	2	-2	28.1847	24.7521	35.5833
513	0	2	-2	24.3474	29.2500	1.2233
514	0	2	-2	17.3336	18.8780	35.2886
515	0	2	-2	32.0763	14.3339	18.5816
516	0	2	-2	18.7775	24.6422	11.1802
517	0	2	-2	40.3151	27.1479	16.5227
518	0	2	-2	24.3995	21.0933	12.0467
519	0	2	-2	3.1469	35.3334	38.2261
520	0	2	-2	23.4611	32.2564	19.1531
521	0	2	-2	20.2992	32.8213	24.6951
522	0	2	-2	11.7575	2.0879	39.6190
523	0	2	-2	3.6677	4.9122	39.4175
524	0	2	-2	16.3364	3.3941	2.6021
525	0	2	-2	25.6517	18.7610	23.8770
526	0	2	-2	28.4689	9.7066	33.9864
527	0	2	-2	1.7122	10.5637	39.3158
528	0	2	-2	29.6073	1.2510	15.2529
529	0	2	-2	26.8732	2.9203	20.6950
530	0	2	-2	12.9957	28.7255	7.0634
531	0	2	-2	18.8709	26.6217	6.9167
532	0	2	-2	31.6917	10.4540	33.5376
533	0	2	-2	25.0677	41.5635	30.9195
534	0	2	-2	7.4824	18.5848	10.5904
535	0	2	-2	35.3600	40.8367	16.0635
536	0	2	-2	30.4372	31.2020	1.1014
537	0	2	-2	36.4350	39.0432	36.9528
538	0	2	-2	12.7170	39.2955	21.6010
539	0	2	-2	23.4281	3.8078	27.7877
540	0	2	-2	17.4574	14.1999	23.3338
541	0	2	-2	39.6231	1.5550	2.0551
542	0	2	-2	13.5301	5.6595	20.2817
543	0	2	-2	31.3864	13.3909	14.3079
544	0	2	-2	38.5143	26.2771	3.2779
545	0	2	-2	17.3236	26.6594	6.5214
546	0	2	-2	34.5925	23.6585	13.6744
547	0	2	-2	19.7237	37.9334	39.3450
548	0	2	-2	36.2683	26.7579	29.8418
549	0	2	-2	5.4918	11.6082	27.1578
550	0	2	-2	24.1517	8.9675	15.4520
551	0	2	-2	30.0484	32.6784	15.9482
552	0	2	-2	12.6971	24.7798	17.2886
553	0	2	-2	4.7177	22.8112	39.2649
554	0	2	-2	25.8148	38.1373	11.8694
555	0	2	-2	34.9598	34.7393	7.8937
556	0	2	-2	38.9641	1.8186	19.1790
557	0	2	-2	31.0693	24.6922	23.1528
558	0	2	-2	5.8897	5.3578	9.3544
559	0	2	-2	17.4476	0.2608	19.8452
560	0	2	-2	6.9377	33.6590	36.1363
561	0	2	-2	10.3520	5.9775	11.6125
562	0	2	-2	9.8538	25.9687	23.1098
563	0	2	-2	11.7485	19.3146	29.5172
564	0	2	-2	7.7207	19.9588	0.9217
565	0	2	-2	13.0115	13.7862	32.2136
566	0	2	-2	4.4833	17.8931	35.3733
567	0	2	-2	38.5200	6.4558	25.2340
568	0	2	-2	38.7055	39.3482	16.7048
569	0	2	-2	32.5277	2.8239	31.2491
570	0	2	-2	40.2371	5.7752	14.7198
571	0	2	-2	11.7629	18.6186	25.2396
572	0	2	-2	22.3003	32.6235	22.8479
573	0	2	-2	32.7136	19.2725	6.3711
574	0	2	-2	10.2762	12.5823	17.1526
575	0	2	-2	19.7399	34.2548	35.8719
576	0	2	-2	26.1640	20.9211	14.1504
577	0	2	-2	24.5894	38.6059	35.7464
578	0	2	-2	25.0365	10.0614	10.3594
579	0	2	-2	34.9268	31.6266	24.2647
580	0	2	-2	15.3547	15.5422	28.6320
581	0	2	-2	11.4991	38.4471	29.7897
582	0	2	-2	18.3144	3.4776	18.4504
583	0	2	-2	39.6444	21.1243	10.6765
584	0	2	-2	23.5892	17.0076	21.0039
585	0	2	-2	0.6167	18.5951	13.2728
586	0	2	-2	15.3902	2.9142	38.5859
587	0	2	-2	24.8992	9.1603	3.4671
588	0	2	-2	1.9364	14.2767	20.1270
589	0	2	-2	36.7008	5.6007	12.4034
590	0	2	-2	40.1852	41.2392	32.9228
591	0	2	-2	2.4465	30.7027	23.7378
592	0	2	-2	34.0379	11.0624	13.6901
593	0	2	-2	4.4123	39.0663	12.1506
594	0	2	-2	32.6757	27.2208	39.0163
595	0	2	-2	1.5227	4.1484	39.1625
596	0	2	-2	16.8622	4.3729	4.5010
597	0	2	-2	3.7032	5.3700	31.6960
598	0	2	-2	1.1379	4.6852	11.4689
599	0	2	-2	24.4228	36.0733	36.8905
600	0	2	-2	0.1325	2.3651	40.2005

Bonds

1	1	1	2
2	2	2	3
3	1	3	4
4	1	5	6
5	2	6	7
6	1	7	8
7	1	9	10
8	2	10	11
9	1	11	12
10	1	13	14
11	2	14	15
12	1	15	16
13	1	17	18
14	2	18	19
15	1	19	20
16	1	21	22
17	2	22	23
18	1	23	24
19	1	25	26
20	2	26	27
21	1	27	28
22	1	29	30
23	2	30	31
24	1	31	32
25	1	33	34
26	2	34	35
27	1	35	36
28	1	37	38
29	2	38	39
30	1	39	40
31	1	41	42
32	2	42	43
33	1	43	44
34	1	45	46
35	2	46	47
36	1	47	48
37	1	49	50
38	2	50	51
39	1	51	52
40	1	53	54
41	2	54	55
42	1	55	56
43	1	57	58
44	2	58	59
45	1	59	60
46	1	61	62
47	2	62	63
48	1	63	64
49	1	65	66
50	2	66	67
51	1	67	68
52	1	69	70
53	2	70	71
54	1	71	72
55	1	73	74
56	2	74	75
57	1	75	76
58	1	77	78
59	2	78	79
60	1	79	80
61	1	81	82
62	2	82	83
63	1	83	84
64	1	85	86
65	2	86	87
66	1	87	88
67	1	89	90
68	2	90	91
69	1	91	92
70	1	93	94
71	2	94	95
72	1	95	96
73	1	97	98
74	2	98	99
75	1	99	100
76	1	101	102
77	2	102	103
78	1	103	104
79	1	105	106
80	2	106	107
81	1	107	108
82	1	109	110
83	2	110	111
84	1	111	112
85	1	113	114
86	2	114	115
87	1	115	116
88	1	117	118
89	2	118	119
90	1	119	120
91	1	121	122
92	2	122	123
93	1	123	124
94	1	125	126
95	2	126	127
96	1	127	128
97	1	129	130
98	2	130	131
99	1	131	132
100	1	133	134
101	2	134	135
102	1	135	136
103	1	137	138
104	2	138	139
105	1	139	140
106	1	141	142
107	2	142	143
108	1	143	144
109	1	145	146
110	2	146	147
111	1	147	148
112	1	149	150
113	2	150	151
114	1	151	152
115	1	153	154
116	2	154	155
117	1	155	156
118	1	157	158
119	2	158	159
120	1	159	160
121	1	161	162
122	2	162	163
123	1	163	164
124	1	165	166
125	2	166	167
126	1	167	168
127	1	169	170
128	2	170	171
129	1	171	172
130	1	173	174
131	2	174	175
132	1	175	176
133	1	177	178
134	2	178	179
135	1	179	180
136	1	181	182
137	2	182	183
138	1	183	184
139	1	185	186
140	2	186	187
141	1	187	188
142	1	189	190
143	2	190	191
144	1	191	192
145	1	193	194
146	2	194	195
147	1	195	196
148	1	197	198
149	2	198	199
150	1	199	200
151	1	201	202
152	2	202	203
153	1	203	204
154	1	205	206
155	2	206	207
156	1	207	208
157	1	209	210
158	2	210	211
159	1	211	212
160	1	213	214
161	2	214	215
162	1	215	216
163	1	217	218
164	2	218	219
165	1	219	220
166	1	221	222
167	2	222	223
168	1	223	224
169	1	225	226
170	2	226	227
171	1	227	228
172	1	229	230
173	2	230	231
174	1	231	232
175	1	233	234
176	2	234	235
177	1	235	236
178	1	237	238
179	2	238	239
180	1	239	240
181	1	241	242
182	2	242	243
183	1	243	244
184	1	245	246
185	2	246	247
186	1	247	248
187	1	249	250
188	2	250	251
189	1	251	252
190	1	253	254
191	2	254	255
192	1	255	256
193	1	257	258
194	2	258	259
195	1	259	260
196	1	261	262
197	2	262	263
198	1	263	264
199	1	265	266
200	2	266	267
201	1	267	268
202	1	269	270
203	2	270	271
204	1	271	272
205	1	273	274
206	2	274	275
207	1	275	276
208	1	277	278
209	2	278	279
210	1	279	280
211	1	281	282
212	2	282	283
213	1	283	284
214	1	285	286
215	2	286	287
216	1	287	288
217	1	289	290
218	2	290	291
219	1	291	292
220	1	293	294
221	2	294	295
222	1	295	296
223	1	297	298
224	2	298	299
225	1	299	300
226	1	301	302
227	2	302	303
228	1	303	304
229	1	305	306
230	2	306	307
231	1	307	308
232	1	309	310
233	2	310	311
234	1	311	312
235	1	313	314
236	2	314	315
237	1	315	316
238	1	317	318
239	2	318	319
240	1	319	320
241	1	321	322
242	2	322	323
243	1	323	324
244	1	325	326
245	2	326	327
246	1	327	328
247	1	329	330
248	2	330	331
249	1	331	332
250	1	333	334
251	2	334	335
252	1	335	336
253	1	337	338
254	2	338	339
255	1	339	340
256	1	341	342
257	2	342	343
258	1	343	344
259	1	345	346
260	2	346	347
261	1	347	348
262	1	349	350
263	2	350	351
264	1	351	352
265	1	353	354
266	2	354	355
267	1	355	356
268	1	357	358
269	2	358	359
270	1	359	360
271	1	361	362
272	2	362	363
273	1	363	364
274	1	365	366
275	2	366	367
276	1	367	368
277	1	369	370
278	2	370	371
279	1	371	372
280	1	373	374
281	2	374	375
282	1	375	376
283	1	377	378
284	2	378	379
285	1	379	380
286	1	381	382
287	2	382	383
288	1	383	384
289	1	385	386
290	2	386	387
291	1	387	388
292	1	389	390
293	2	390	391
294	1	391	392
295	1	393	394
296	2	394	395
297	1	395	396
298	1	397	398
299	2	398	399
300	1	399	400

Angles

1	1	1	2	3
2	1	2	3	4
3	1	5	6	7
4	1	6	7	8
5	1	9	10	11
6	1	10	11	12
7	1	13	14	15
8	1	14	15	16
9	1	17	18	19
10	1	18	19	20
11	1	21	22	23
12	1	22	23	24
13	1	25	26	27
14	1	26	27	28
15	1	29	30	31
16	1	30	31	32
17	1	33	34	35
18	1	34	35	36
19	1	37	38	39
20	1	38	39	40
21	1	41	42	43
22	1	42	43	44
23	1	45	46	47
24	1	46	47	48
25	1	49	50	51
26	1	50	51	52
27	1	53	54	55
28	1	54	55	56
29	1	57	58	59
30	1	58	59	60
31	1	61	62	63
32	1	62	63	64
33	1	65	66	67
34	1	66	67	68
35	1	69	70	71
36	1	70	71	72
37	1	73	74	75
38	1	74	75	76
39	1	77	78	79
40	1	78	79	80
41	1	81	82	83
42	1	82	83	84
43	1	85	86	87
44	1	86	87	88
45	1	89	90	91
46	1	90	91	92
47	1	93	94	95
48	1	94	95	96
49	1	97	98	99
50	1	98	99	100
51	1	101	102	103
52	1	102	103	104
53	1	105	106	107
54	1	106	107	108
55	1	109	110	111
56	1	110	111	112
57	1	113	114	115
58	1	114	115	116
59	1	117	118	119
60	1	118	119	120
61	1	121	122	123
62	1	122	123	124
63	1	125	126	127
64	1	126	127	128
65	1	129	130	131
66	1	130	131	132
67	1	133	134	135
68	1	134	135	136
69	1	137	138	139
70	1	138	139	140
71	1	141	142	143
72	1	142	143	144
73	1	145	146	147
74	1	146	147	148
75	1	149	150	151
76	1	150	151	152
77	1	153	154	155
78	1	154	155	156
79	1	157	158	159
80	1	158	159	160
81	1	161	162	163
82	1	162	163	164
83	1	165	166	167
84	1	166	167	168
85	1	169	170	171
86	1	170	171	172
87	1	173	174	175
88	1	174	175	176
89	1	177	178	179
90	1	178	179	180
91	1	181	182	183
92	1	182	183	184
93	1	185	186	187
94	1	186	187	188
95	1	189	190	191
96	1	190	191	192
97	1	193	194	195
98	1	194	195	196
99	1	197	198	199
100	1	198	199	200
101	1	201	202	203
102	1	202	203	204
103	1	205	206	207
104	1	206	207	208
105	1	209	210	211
106	1	210	211	212
107	1	213	214	215
108	1	214	215	216
109	1	217	218	219
110	1	218	219	220
111	1	221	222	223
112	1	222	223	224
113	1	225	226	227
114	1	226	227	228
115	1	229	230	231
116	1	230	231	232
117	1	233	234	235
118	1	234	235	236
119	1	237	238	239
120	1	238	239	240
121	1	241	242	243
122	1	242	243	244
123	1	245	246	247
124	1	246	247	248
125	1	249	250	251
126	1	250	251	252
127	1	253	254	255
128	1	254	255	256
129	1	257	258	259
130	1	258	259	260
131	1	261	262	263
132	1	262	263	264
133	1	265	266	267
134	1	266	267	268
135	1	269	270	271
136	1	270	271	272
137	1	273	274	275
138	1	274	275	276
139	1	277	278	279
140	1	278	279	280
141	1	281	282	283
142	1	282	283	284
143	1	285	286	287
144	1	286	287	288
145	1	289	290	291
146	1	290	291	292
147	1	293	294	295
148	1	294	295	296
149	1	297	298	299
150	1	298	299	300
151	1	301	302	303
152	1	302	303	304
153	1	305	306	307
154	1	306	307	308
155	1	309	310	311
156	1	310	311	312
157	1	313	314	315
158	1	314	315	316
159	1	317	318	319
160	1	318	319	320
161	1	321	322	323
162	1	322	323	324
163	1	325	326	327
164	1	326	327	328
165	1	329	330	331
166	1	330	331	332
167	1	333	334	335
168	1	334	335	336
169	1	337	338	339
170	1	338	339	340
171	1	341	342	343
172	1	342	343	344
173	1	345	346	347
174	1	346	347	348
175	1	349	350	351
176	1	350	351	352
177	1	353	354	355
178	1	354	355	356
179	1	357	358	359
180	1	358	359	360
181	1	361	362	363
182	1	362	363	364
183	1	365	366	367
184	1	366	367	368
185	1	369	370	371
186	1	370	371	372
187	1	373	374	375
188	1	374	375	376
189	1	377	378	379
190	1	378	379	380
191	1	381	382	383
192	1	382	383	384
193	1	385	386	387
194	1	386	387	388
195	1	389	390	391
196	1	390	391	392
197	1	393	394	395
198	1	394	395	396
199	1	397	398	399
200	1	398	399	400

Dihedrals

1	1	1	2	3	4
2	1	5	6	7	8
3	1	9	10	11	12
4	1	13	14	15	16
5	1	17	18	19	20
6	1	21	22	23	24
7	1	25	26	27	28
8	1	29	30	31	32
9	1	33	34	35	36
10	1	37	38	39	40
11	1	41	42	43	44
12	1	45	46	47	48
13	1	49	50	51	52
14	1	53	54	55	56
15	1	57	58	59	60
16	1	61	62	63	64
17	1	65	66	67	68
18	1	69	70	71	72
19	1	73	74	75	76
20	1	77	78	79	80
21	1	81	82	83	84
22	1	85	86	87	88
23	1	89	90	91	92
24	1	93	94	95	96
25	1	97	98	99	100
26	1	101	102	103	104
27	1	105	106	107	108
28	1	109	110	111	112
29	1	113	114	115	116
30	1	117	118	119	120
31	1	121	122	123	124
32	1	125	126	127	128
33	1	129	130	131	132
34	1	133	134	135	136
35	1	137	138	139	140
36	1	141	142	143	144
37	1	145	146	147	148