# data file for 100 EtOCS precursors with porosity capabilities 
-4 52 xlo xhi
-4 52 ylo yhi
-4 52 zlo zhi

666 atoms
300 bonds
200 angles
100 dihedrals

3 atom types
3 bond types
1 angle types
11 dihedral types

Masses

	1	28
	2	16
	3	12

Angle Coeffs

	1	3.38	109.5185

Bond Coeffs

	1	20	1.9000
	2	20	1.5384
	3	20	1.5227

Dihedral Coeffs

	1	opls	0.3750	-0.2000	0.6250	-0.1000
	2	opls	0.0179	-0.0075	0.0613	-0.0025
	3	opls	0.0169	-0.0034	0.0596	-0.0029
	4	opls	0.0061	-0.0064	0.0680	-0.0032
	5	opls	5.1866	-0.7573	0.1955	-0.0484
	6	opls	0.0865	-0.0347	0.1369	0.0009
	7	opls	0.0260	-0.0152	0.0313	-0.0022
	8	class2	0.0035	180.0000	0.0027	180.0000	0.0293	0.0000
	9	class2	0.0000	0.0000	0.0107	180.0000	0.0000	0.0000
	10	class2	5.5263	0.0000	0.0530	-180.0000	-0.4549	0.0000
	11	class2	-0.0021	180.0000	0.0068	-180.0000	0.0249	180.0000

MiddleBondTorsion Coeffs

	1	opls
	2	opls
	3	opls
	4	opls
	5	opls
	6	opls
	7	opls
	8	class2	0	0	0	0
	9	class2	0	0	0	0
	10	class2	0	0	0	0
	11	class2	0	0	0	0

EndBondTorsion Coeffs

	1	opls
	2	opls
	3	opls
	4	opls
	5	opls
	6	opls
	7	opls
	8	class2	0	0	0	0	0	0	0	0
	9	class2	0	0	0	0	0	0	0	0
	10	class2	0	0	0	0	0	0	0	0
	11	class2	0	0	0	0	0	0	0	0

AngleTorsion Coeffs

	1	opls
	2	opls
	3	opls
	4	opls
	5	opls
	6	opls
	7	opls
	8	class2	0	0	0	0	0	0	0	0
	9	class2	0	0	0	0	0	0	0	0
	10	class2	0	0	0	0	0	0	0	0
	11	class2	0	0	0	0	0	0	0	0

AngleAngleTorsion Coeffs

	1	opls
	2	opls
	3	opls
	4	opls
	5	opls
	6	opls
	7	opls
	8	class2	0	0	0
	9	class2	0	0	0
	10	class2	0	0	0
	11	class2	0	0	0

BondBond13 Coeffs

	1	opls
	2	opls
	3	opls
	4	opls
	5	opls
	6	opls
	7	opls
	8	class2	0	0	0
	9	class2	0	0	0
	10	class2	0	0	0
	11	class2	0	0	0

Atoms

1	1	1	4	4.4813	4.2828	27.9769
2	1	3	0	4.4813	4.2828	29.8769
3	1	3	0	4.4813	5.7328	30.3909
4	1	1	4	4.4813	5.7328	32.2909
5	2	1	4	21.2726	0.7836	18.8479
6	2	3	0	21.2726	0.7836	20.7479
7	2	3	0	21.2726	2.2336	21.2619
8	2	1	4	21.2726	2.2336	23.1619
9	3	1	4	28.2733	5.4427	40.5023
10	3	3	0	28.2733	5.4427	42.4023
11	3	3	0	28.2733	6.8927	42.9163
12	3	1	4	28.2733	6.8927	44.8163
13	4	1	4	16.8928	2.1046	6.7598
14	4	3	0	16.8928	2.1046	8.6598
15	4	3	0	16.8928	3.5546	9.1738
16	4	1	4	16.8928	3.5546	11.0738
17	5	1	4	14.9924	6.1450	36.2295
18	5	3	0	14.9924	6.1450	38.1295
19	5	3	0	14.9924	7.5950	38.6435
20	5	1	4	14.9924	7.5950	40.5435
21	6	1	4	25.4934	6.6816	38.0269
22	6	3	0	25.4934	6.6816	39.9269
23	6	3	0	25.4934	8.1316	40.4409
24	6	1	4	25.4934	8.1316	42.3409
25	7	1	4	24.0926	17.2412	24.6905
26	7	3	0	24.0926	17.2412	26.5905
27	7	3	0	24.0926	18.6912	27.1045
28	7	1	4	24.0926	18.6912	29.0045
29	8	1	4	14.5601	30.2086	35.6366
30	8	3	0	14.5601	30.2086	37.5366
31	8	3	0	14.5601	31.6586	38.0506
32	8	1	4	14.5601	31.6586	39.9506
33	9	1	4	6.0473	32.0492	31.7348
34	9	3	0	6.0473	32.0492	33.6348
35	9	3	0	6.0473	33.4992	34.1488
36	9	1	4	6.0473	33.4992	36.0488
37	10	1	4	26.9085	0.1745	39.7069
38	10	3	0	26.9085	0.1745	41.6069
39	10	3	0	26.9085	1.6245	42.1209
40	10	1	4	26.9085	1.6245	44.0209
41	11	1	4	1.7232	6.2852	6.5182
42	11	3	0	1.7232	6.2852	8.4182
43	11	3	0	1.7232	7.7352	8.9322
44	11	1	4	1.7232	7.7352	10.8322
45	12	1	4	29.3464	39.6178	5.9947
46	12	3	0	29.3464	39.6178	7.8947
47	12	3	0	29.3464	41.0678	8.4087
48	12	1	4	29.3464	41.0678	10.3087
49	13	1	4	34.1143	16.5836	20.4372
50	13	3	0	34.1143	16.5836	22.3372
51	13	3	0	34.1143	18.0336	22.8512
52	13	1	4	34.1143	18.0336	24.7512
53	14	1	4	29.1112	2.9242	14.2556
54	14	3	0	29.1112	2.9242	16.1556
55	14	3	0	29.1112	4.3742	16.6696
56	14	1	4	29.1112	4.3742	18.5696
57	15	1	4	39.7960	37.5053	4.4701
58	15	3	0	39.7960	37.5053	6.3701
59	15	3	0	39.7960	38.9553	6.8841
60	15	1	4	39.7960	38.9553	8.7841
61	16	1	4	23.0823	5.8215	22.4514
62	16	3	0	23.0823	5.8215	24.3514
63	16	3	0	23.0823	7.2715	24.8654
64	16	1	4	23.0823	7.2715	26.7654
65	17	1	4	39.8935	8.7784	38.0304
66	17	3	0	39.8935	8.7784	39.9304
67	17	3	0	39.8935	10.2284	40.4444
68	17	1	4	39.8935	10.2284	42.3444
69	18	1	4	18.9006	39.8752	33.2353
70	18	3	0	18.9006	39.8752	35.1353
71	18	3	0	18.9006	41.3252	35.6493
72	18	1	4	18.9006	41.3252	37.5493
73	19	1	4	15.0142	0.0151	42.9395
74	19	3	0	15.0142	0.0151	44.8395
75	19	3	0	15.0142	1.4651	45.3535
76	19	1	4	15.0142	1.4651	47.2535
77	20	1	4	32.8876	5.8277	27.6983
78	20	3	0	32.8876	5.8277	29.5983
79	20	3	0	32.8876	7.2777	30.1123
80	20	1	4	32.8876	7.2777	32.0123
81	21	1	4	4.4091	39.1831	22.3429
82	21	3	0	4.4091	39.1831	24.2429
83	21	3	0	4.4091	40.6331	24.7569
84	21	1	4	4.4091	40.6331	26.6569
85	22	1	4	7.3503	33.6035	25.1889
86	22	3	0	7.3503	33.6035	27.0889
87	22	3	0	7.3503	35.0535	27.6029
88	22	1	4	7.3503	35.0535	29.5029
89	23	1	4	39.3455	37.2282	11.3110
90	23	3	0	39.3455	37.2282	13.2110
91	23	3	0	39.3455	38.6782	13.7250
92	23	1	4	39.3455	38.6782	15.6250
93	24	1	4	16.0072	39.1230	28.9473
94	24	3	0	16.0072	39.1230	30.8473
95	24	3	0	16.0072	40.5730	31.3613
96	24	1	4	16.0072	40.5730	33.2613
97	25	1	4	1.8106	23.5936	27.3646
98	25	3	0	1.8106	23.5936	29.2646
99	25	3	0	1.8106	25.0436	29.7786
100	25	1	4	1.8106	25.0436	31.6786
101	26	1	4	27.8057	2.2797	18.3691
102	26	3	0	27.8057	2.2797	20.2691
103	26	3	0	27.8057	3.7297	20.7831
104	26	1	4	27.8057	3.7297	22.6831
105	27	1	4	21.0209	41.4069	24.5756
106	27	3	0	21.0209	41.4069	26.4756
107	27	3	0	21.0209	42.8569	26.9896
108	27	1	4	21.0209	42.8569	28.8896
109	28	1	4	26.5740	40.2782	27.3268
110	28	3	0	26.5740	40.2782	29.2268
111	28	3	0	26.5740	41.7282	29.7408
112	28	1	4	26.5740	41.7282	31.6408
113	29	1	4	37.4868	38.9885	23.0079
114	29	3	0	37.4868	38.9885	24.9079
115	29	3	0	37.4868	40.4385	25.4219
116	29	1	4	37.4868	40.4385	27.3219
117	30	1	4	3.6237	42.9620	1.8343
118	30	3	0	3.6237	42.9620	3.7343
119	30	3	0	3.6237	44.4120	4.2483
120	30	1	4	3.6237	44.4120	6.1483
121	31	1	4	29.9762	4.4030	0.5584
122	31	3	0	29.9762	4.4030	2.4584
123	31	3	0	29.9762	5.8530	2.9724
124	31	1	4	29.9762	5.8530	4.8724
125	32	1	4	30.3748	27.2349	39.7834
126	32	3	0	30.3748	27.2349	41.6834
127	32	3	0	30.3748	28.6849	42.1974
128	32	1	4	30.3748	28.6849	44.0974
129	33	1	4	16.5788	7.9109	0.9175
130	33	3	0	16.5788	7.9109	2.8175
131	33	3	0	16.5788	9.3609	3.3315
132	33	1	4	16.5788	9.3609	5.2315
133	34	1	4	17.5380	1.1150	11.0920
134	34	3	0	17.5380	1.1150	12.9920
135	34	3	0	17.5380	2.5650	13.5060
136	34	1	4	17.5380	2.5650	15.4060
137	35	1	4	24.7564	27.4473	17.5833
138	35	3	0	24.7564	27.4473	19.4833
139	35	3	0	24.7564	28.8973	19.9973
140	35	1	4	24.7564	28.8973	21.8973
141	36	1	4	4.4869	14.4704	3.0536
142	36	3	0	4.4869	14.4704	4.9536
143	36	3	0	4.4869	15.9204	5.4676
144	36	1	4	4.4869	15.9204	7.3676
145	37	1	4	31.0593	19.5482	5.7901
146	37	3	0	31.0593	19.5482	7.6901
147	37	3	0	31.0593	20.9982	8.2041
148	37	1	4	31.0593	20.9982	10.1041
149	38	1	4	11.6012	13.7636	4.4279
150	38	3	0	11.6012	13.7636	6.3279
151	38	3	0	11.6012	15.2136	6.8419
152	38	1	4	11.6012	15.2136	8.7419
153	39	1	4	32.6766	41.7693	29.8438
154	39	3	0	32.6766	41.7693	31.7438
155	39	3	0	32.6766	43.2193	32.2578
156	39	1	4	32.6766	43.2193	34.1578
157	40	1	4	39.7503	34.7462	40.7656
158	40	3	0	39.7503	34.7462	42.6656
159	40	3	0	39.7503	36.1962	43.1796
160	40	1	4	39.7503	36.1962	45.0796
161	41	1	4	29.4434	19.5950	32.0054
162	41	3	0	29.4434	19.5950	33.9054
163	41	3	0	29.4434	21.0450	34.4194
164	41	1	4	29.4434	21.0450	36.3194
165	42	1	4	0.4709	12.7974	33.0629
166	42	3	0	0.4709	12.7974	34.9629
167	42	3	0	0.4709	14.2474	35.4769
168	42	1	4	0.4709	14.2474	37.3769
169	43	1	4	42.7659	7.3121	31.1211
170	43	3	0	42.7659	7.3121	33.0211
171	43	3	0	42.7659	8.7621	33.5351
172	43	1	4	42.7659	8.7621	35.4351
173	44	1	4	21.0227	27.4740	10.3254
174	44	3	0	21.0227	27.4740	12.2254
175	44	3	0	21.0227	28.9240	12.7394
176	44	1	4	21.0227	28.9240	14.6394
177	45	1	4	4.5479	30.5929	22.5335
178	45	3	0	4.5479	30.5929	24.4335
179	45	3	0	4.5479	32.0429	24.9475
180	45	1	4	4.5479	32.0429	26.8475
181	46	1	4	26.3291	25.1188	8.7714
182	46	3	0	26.3291	25.1188	10.6714
183	46	3	0	26.3291	26.5688	11.1854
184	46	1	4	26.3291	26.5688	13.0854
185	47	1	4	4.7966	30.7348	1.1945
186	47	3	0	4.7966	30.7348	3.0945
187	47	3	0	4.7966	32.1848	3.6085
188	47	1	4	4.7966	32.1848	5.5085
189	48	1	4	40.8670	18.5495	12.7163
190	48	3	0	40.8670	18.5495	14.6163
191	48	3	0	40.8670	19.9995	15.1303
192	48	1	4	40.8670	19.9995	17.0303
193	49	1	4	28.4429	15.7459	28.1836
194	49	3	0	28.4429	15.7459	30.0836
195	49	3	0	28.4429	17.1959	30.5976
196	49	1	4	28.4429	17.1959	32.4976
197	50	1	4	0.0130	23.5491	4.7025
198	50	3	0	0.0130	23.5491	6.6025
199	50	3	0	0.0130	24.9991	7.1165
200	50	1	4	0.0130	24.9991	9.0165
201	51	1	4	20.9509	17.6426	28.4813
202	51	3	0	20.9509	17.6426	30.3813
203	51	3	0	20.9509	19.0926	30.8953
204	51	1	4	20.9509	19.0926	32.7953
205	52	1	4	12.3197	11.3302	24.0158
206	52	3	0	12.3197	11.3302	25.9158
207	52	3	0	12.3197	12.7802	26.4298
208	52	1	4	12.3197	12.7802	28.3298
209	53	1	4	37.3023	15.8624	35.9835
210	53	3	0	37.3023	15.8624	37.8835
211	53	3	0	37.3023	17.3124	38.3975
212	53	1	4	37.3023	17.3124	40.2975
213	54	1	4	34.4634	39.7430	1.3749
214	54	3	0	34.4634	39.7430	3.2749
215	54	3	0	34.4634	41.1930	3.7889
216	54	1	4	34.4634	41.1930	5.6889
217	55	1	4	41.1554	21.6027	11.3818
218	55	3	0	41.1554	21.6027	13.2818
219	55	3	0	41.1554	23.0527	13.7958
220	55	1	4	41.1554	23.0527	15.6958
221	56	1	4	26.2973	7.9161	0.3318
222	56	3	0	26.2973	7.9161	2.2318
223	56	3	0	26.2973	9.3661	2.7458
224	56	1	4	26.2973	9.3661	4.6458
225	57	1	4	17.9015	28.3376	16.0206
226	57	3	0	17.9015	28.3376	17.9206
227	57	3	0	17.9015	29.7876	18.4346
228	57	1	4	17.9015	29.7876	20.3346
229	58	1	4	13.9644	37.5982	7.0693
230	58	3	0	13.9644	37.5982	8.9693
231	58	3	0	13.9644	39.0482	9.4833
232	58	1	4	13.9644	39.0482	11.3833
233	59	1	4	0.0097	24.8811	41.7237
234	59	3	0	0.0097	24.8811	43.6237
235	59	3	0	0.0097	26.3311	44.1377
236	59	1	4	0.0097	26.3311	46.0377
237	60	1	4	15.7378	35.5582	23.2806
238	60	3	0	15.7378	35.5582	25.1806
239	60	3	0	15.7378	37.0082	25.6946
240	60	1	4	15.7378	37.0082	27.5946
241	61	1	4	9.4674	33.3488	7.2535
242	61	3	0	9.4674	33.3488	9.1535
243	61	3	0	9.4674	34.7988	9.6675
244	61	1	4	9.4674	34.7988	11.5675
245	62	1	4	33.7289	5.9425	5.3246
246	62	3	0	33.7289	5.9425	7.2246
247	62	3	0	33.7289	7.3925	7.7386
248	62	1	4	33.7289	7.3925	9.6386
249	63	1	4	22.9675	31.1712	9.7506
250	63	3	0	22.9675	31.1712	11.6506
251	63	3	0	22.9675	32.6212	12.1646
252	63	1	4	22.9675	32.6212	14.0646
253	64	1	4	7.1035	31.4629	31.9595
254	64	3	0	7.1035	31.4629	33.8595
255	64	3	0	7.1035	32.9129	34.3735
256	64	1	4	7.1035	32.9129	36.2735
257	65	1	4	32.0534	21.2911	4.4151
258	65	3	0	32.0534	21.2911	6.3151
259	65	3	0	32.0534	22.7411	6.8291
260	65	1	4	32.0534	22.7411	8.7291
261	66	1	4	20.9162	4.7822	7.9021
262	66	3	0	20.9162	4.7822	9.8021
263	66	3	0	20.9162	6.2322	10.3161
264	66	1	4	20.9162	6.2322	12.2161
265	67	1	4	7.9373	9.0723	24.9175
266	67	3	0	7.9373	9.0723	26.8175
267	67	3	0	7.9373	10.5223	27.3315
268	67	1	4	7.9373	10.5223	29.2315
269	68	1	4	23.2705	24.6385	21.4551
270	68	3	0	23.2705	24.6385	23.3551
271	68	3	0	23.2705	26.0885	23.8691
272	68	1	4	23.2705	26.0885	25.7691
273	69	1	4	29.6837	17.4354	16.9638
274	69	3	0	29.6837	17.4354	18.8638
275	69	3	0	29.6837	18.8854	19.3778
276	69	1	4	29.6837	18.8854	21.2778
277	70	1	4	26.9879	14.0580	12.7567
278	70	3	0	26.9879	14.0580	14.6567
279	70	3	0	26.9879	15.5080	15.1707
280	70	1	4	26.9879	15.5080	17.0707
281	71	1	4	15.9726	16.2888	27.3855
282	71	3	0	15.9726	16.2888	29.2855
283	71	3	0	15.9726	17.7388	29.7995
284	71	1	4	15.9726	17.7388	31.6995
285	72	1	4	18.4521	22.6750	27.7622
286	72	3	0	18.4521	22.6750	29.6622
287	72	3	0	18.4521	24.1250	30.1762
288	72	1	4	18.4521	24.1250	32.0762
289	73	1	4	21.5098	22.9638	11.6027
290	73	3	0	21.5098	22.9638	13.5027
291	73	3	0	21.5098	24.4138	14.0167
292	73	1	4	21.5098	24.4138	15.9167
293	74	1	4	15.6377	18.7142	9.6193
294	74	3	0	15.6377	18.7142	11.5193
295	74	3	0	15.6377	20.1642	12.0333
296	74	1	4	15.6377	20.1642	13.9333
297	75	1	4	20.4126	24.2207	29.0210
298	75	3	0	20.4126	24.2207	30.9210
299	75	3	0	20.4126	25.6707	31.4350
300	75	1	4	20.4126	25.6707	33.3350
301	76	1	4	28.9584	1.2353	26.5464
302	76	3	0	28.9584	1.2353	28.4464
303	76	3	0	28.9584	2.6853	28.9604
304	76	1	4	28.9584	2.6853	30.8604
305	77	1	4	24.6197	12.5344	2.7584
306	77	3	0	24.6197	12.5344	4.6584
307	77	3	0	24.6197	13.9844	5.1724
308	77	1	4	24.6197	13.9844	7.0724
309	78	1	4	8.7597	25.6609	40.7449
310	78	3	0	8.7597	25.6609	42.6449
311	78	3	0	8.7597	27.1109	43.1589
312	78	1	4	8.7597	27.1109	45.0589
313	79	1	4	27.8041	20.1284	21.1475
314	79	3	0	27.8041	20.1284	23.0475
315	79	3	0	27.8041	21.5784	23.5615
316	79	1	4	27.8041	21.5784	25.4615
317	80	1	4	13.2620	27.9770	30.5120
318	80	3	0	13.2620	27.9770	32.4120
319	80	3	0	13.2620	29.4270	32.9260
320	80	1	4	13.2620	29.4270	34.8260
321	81	1	4	3.8136	0.5749	36.0939
322	81	3	0	3.8136	0.5749	37.9939
323	81	3	0	3.8136	2.0249	38.5079
324	81	1	4	3.8136	2.0249	40.4079
325	82	1	4	6.9680	28.1784	21.4171
326	82	3	0	6.9680	28.1784	23.3171
327	82	3	0	6.9680	29.6284	23.8311
328	82	1	4	6.9680	29.6284	25.7311
329	83	1	4	29.4969	31.8901	23.3522
330	83	3	0	29.4969	31.8901	25.2522
331	83	3	0	29.4969	33.3401	25.7662
332	83	1	4	29.4969	33.3401	27.6662
333	84	1	4	5.7957	36.7072	5.0493
334	84	3	0	5.7957	36.7072	6.9493
335	84	3	0	5.7957	38.1572	7.4633
336	84	1	4	5.7957	38.1572	9.3633
337	85	1	4	1.4474	13.3467	1.5821
338	85	3	0	1.4474	13.3467	3.4821
339	85	3	0	1.4474	14.7967	3.9961
340	85	1	4	1.4474	14.7967	5.8961
341	86	1	4	25.4040	23.1237	35.0938
342	86	3	0	25.4040	23.1237	36.9938
343	86	3	0	25.4040	24.5737	37.5078
344	86	1	4	25.4040	24.5737	39.4078
345	87	1	4	22.0335	15.3528	28.4433
346	87	3	0	22.0335	15.3528	30.3433
347	87	3	0	22.0335	16.8028	30.8573
348	87	1	4	22.0335	16.8028	32.7573
349	88	1	4	4.1613	2.8646	22.3521
350	88	3	0	4.1613	2.8646	24.2521
351	88	3	0	4.1613	4.3146	24.7661
352	88	1	4	4.1613	4.3146	26.6661
353	89	1	4	17.0892	40.2001	41.7901
354	89	3	0	17.0892	40.2001	43.6901
355	89	3	0	17.0892	41.6501	44.2041
356	89	1	4	17.0892	41.6501	46.1041
357	90	1	4	14.6948	39.5013	21.8529
358	90	3	0	14.6948	39.5013	23.7529
359	90	3	0	14.6948	40.9513	24.2669
360	90	1	4	14.6948	40.9513	26.1669
361	91	1	4	34.4659	25.6625	20.2000
362	91	3	0	34.4659	25.6625	22.1000
363	91	3	0	34.4659	27.1125	22.6140
364	91	1	4	34.4659	27.1125	24.5140
365	92	1	4	12.9724	37.7020	33.1250
366	92	3	0	12.9724	37.7020	35.0250
367	92	3	0	12.9724	39.1520	35.5390
368	92	1	4	12.9724	39.1520	37.4390
369	93	1	4	21.3548	42.0355	32.3128
370	93	3	0	21.3548	42.0355	34.2128
371	93	3	0	21.3548	43.4855	34.7268
372	93	1	4	21.3548	43.4855	36.6268
373	94	1	4	11.5856	13.2059	16.7684
374	94	3	0	11.5856	13.2059	18.6684
375	94	3	0	11.5856	14.6559	19.1824
376	94	1	4	11.5856	14.6559	21.0824
377	95	1	4	0.7215	3.6431	33.5776
378	95	3	0	0.7215	3.6431	35.4776
379	95	3	0	0.7215	5.0931	35.9916
380	95	1	4	0.7215	5.0931	37.8916
381	96	1	4	16.3983	38.8948	16.4627
382	96	3	0	16.3983	38.8948	18.3627
383	96	3	0	16.3983	40.3448	18.8767
384	96	1	4	16.3983	40.3448	20.7767
385	97	1	4	12.2360	25.1710	6.2185
386	97	3	0	12.2360	25.1710	8.1185
387	97	3	0	12.2360	26.6210	8.6325
388	97	1	4	12.2360	26.6210	10.5325
389	98	1	4	4.9051	41.8876	25.3834
390	98	3	0	4.9051	41.8876	27.2834
391	98	3	0	4.9051	43.3376	27.7974
392	98	1	4	4.9051	43.3376	29.6974
393	99	1	4	1.9836	7.7986	22.4962
394	99	3	0	1.9836	7.7986	24.3962
395	99	3	0	1.9836	9.2486	24.9102
396	99	1	4	1.9836	9.2486	26.8102
397	100	1	4	11.9662	23.7585	18.6704
398	100	3	0	11.9662	23.7585	20.5704
399	100	3	0	11.9662	25.2085	21.0844
400	100	1	4	11.9662	25.2085	22.9844
401	0	2	-2	27.2375	25.5377	41.7044
402	0	2	-2	2.1019	6.9576	25.3239
403	0	2	-2	10.4259	40.5989	17.9708
404	0	2	-2	42.6173	13.2365	5.4303
405	0	2	-2	28.6382	8.5843	10.8475
406	0	2	-2	9.5381	21.2537	33.4040
407	0	2	-2	11.0370	10.3427	28.6168
408	0	2	-2	18.0288	42.8404	13.8512
409	0	2	-2	19.0233	24.4857	41.2317
410	0	2	-2	17.4458	32.8731	13.6480
411	0	2	-2	30.3080	1.6470	30.6558
412	0	2	-2	23.0595	41.2921	24.8895
413	0	2	-2	23.1411	24.8324	1.3710
414	0	2	-2	35.0958	15.9302	27.2818
415	0	2	-2	39.2973	1.3663	18.7894
416	0	2	-2	26.8518	36.9249	3.1291
417	0	2	-2	39.5758	11.2511	18.3641
418	0	2	-2	42.2875	29.0506	38.4095
419	0	2	-2	6.9724	10.6973	5.6070
420	0	2	-2	5.5160	23.0979	37.7243
421	0	2	-2	35.0808	22.3681	39.9103
422	0	2	-2	11.8278	31.4897	21.2822
423	0	2	-2	6.6900	28.5884	35.7017
424	0	2	-2	16.3781	13.4241	17.4861
425	0	2	-2	32.8242	7.5892	1.3515
426	0	2	-2	26.1812	22.5503	39.0688
427	0	2	-2	40.7981	9.8676	7.3393
428	0	2	-2	0.3952	24.4046	39.6501
429	0	2	-2	22.4816	17.3887	35.7682
430	0	2	-2	21.0560	30.0905	9.9138
431	0	2	-2	3.3053	31.0491	31.0781
432	0	2	-2	9.9277	14.1599	9.9047
433	0	2	-2	9.0737	35.6682	5.6062
434	0	2	-2	35.6000	3.6758	20.2524
435	0	2	-2	21.7080	11.0827	42.8642
436	0	2	-2	11.5356	10.9332	2.0715
437	0	2	-2	18.7991	24.8681	33.8162
438	0	2	-2	33.9581	38.9058	42.5233
439	0	2	-2	12.7981	34.6171	0.4585
440	0	2	-2	31.2818	35.6084	33.6726
441	0	2	-2	22.9842	1.3279	36.6835
442	0	2	-2	22.4020	13.0414	28.8625
443	0	2	-2	34.1577	4.9948	28.3466
444	0	2	-2	37.7162	34.6518	2.3566
445	0	2	-2	6.1085	4.8571	9.6566
446	0	2	-2	28.8298	6.2563	17.9854
447	0	2	-2	24.3470	39.7892	29.4419
448	0	2	-2	17.1809	17.8819	25.7934
449	0	2	-2	27.2349	35.4855	27.4635
450	0	2	-2	20.8279	3.6032	28.2613
451	0	2	-2	1.3243	18.2623	40.8366
452	0	2	-2	28.8625	33.0474	21.9529
453	0	2	-2	37.1180	23.1563	34.4709
454	0	2	-2	34.8131	35.0979	8.0647
455	0	2	-2	17.5673	17.1027	37.6091
456	0	2	-2	23.5491	24.2215	16.9987
457	0	2	-2	11.0181	31.4346	7.1991
458	0	2	-2	27.2070	13.5907	12.3171
459	0	2	-2	12.0003	3.0900	17.9201
460	0	2	-2	28.8119	7.2163	5.5911
461	0	2	-2	22.8091	32.0338	13.4524
462	0	2	-2	21.3880	26.6630	30.2018
463	0	2	-2	14.5121	20.8918	42.3580
464	0	2	-2	20.0044	13.0250	39.0859
465	0	2	-2	36.6694	21.2099	35.6178
466	0	2	-2	11.1638	25.8996	28.0151
467	0	2	-2	23.7837	8.5054	32.3888
468	0	2	-2	16.9140	27.5763	5.9131
469	0	2	-2	31.8489	23.5105	40.6749
470	0	2	-2	20.9026	13.6363	42.1342
471	0	2	-2	21.9680	11.4542	33.6237
472	0	2	-2	24.7076	42.6329	18.7183
473	0	2	-2	15.4286	8.6811	5.7984
474	0	2	-2	5.0339	23.8183	8.0751
475	0	2	-2	27.5341	13.2444	6.3748
476	0	2	-2	16.6882	12.3835	26.7902
477	0	2	-2	38.5288	23.2910	19.0935
478	0	2	-2	17.4017	15.6020	33.4045
479	0	2	-2	31.8077	7.1395	11.3080
480	0	2	-2	5.0393	28.4975	37.3460
481	0	2	-2	41.2566	21.6787	32.4761
482	0	2	-2	38.3098	33.2193	38.5889
483	0	2	-2	23.8549	4.5103	36.5202
484	0	2	-2	22.8809	19.0594	3.4213
485	0	2	-2	7.1724	33.0363	31.2314
486	0	2	-2	19.7022	38.9820	13.2906
487	0	2	-2	41.9339	42.1359	20.8640
488	0	2	-2	24.6817	6.8712	42.9245
489	0	2	-2	28.2281	30.4949	4.6666
490	0	2	-2	23.8088	21.3560	3.7197
491	0	2	-2	18.0745	12.0719	2.8029
492	0	2	-2	15.0621	39.1040	25.2366
493	0	2	-2	21.9932	12.0753	34.7513
494	0	2	-2	12.6497	21.3276	13.6607
495	0	2	-2	41.1218	13.0448	36.8526
496	0	2	-2	2.9829	26.7570	4.3283
497	0	2	-2	18.8831	9.3049	42.8041
498	0	2	-2	15.7456	9.6394	14.8682
499	0	2	-2	7.1743	29.5659	34.8967
500	0	2	-2	5.5289	40.6660	17.4989
501	0	2	-2	12.1347	32.8523	16.5887
502	0	2	-2	2.7583	17.4465	38.6504
503	0	2	-2	28.9191	8.2108	28.8329
504	0	2	-2	28.6667	2.9804	12.8970
505	0	2	-2	20.2589	26.3816	30.6157
506	0	2	-2	35.4862	11.7265	16.9995
507	0	2	-2	35.8296	11.2077	4.3965
508	0	2	-2	9.1902	17.2490	29.9389
509	0	2	-2	2.2575	37.0079	24.9057
510	0	2	-2	0.7777	28.9862	10.4372
511	0	2	-2	40.2755	24.2357	29.0527
512	0	2	-2	16.7380	26.4766	8.9199
513	0	2	-2	20.0767	14.4757	12.5544
514	0	2	-2	41.3733	41.8200	26.6737
515	0	2	-2	22.4957	19.9129	4.9011
516	0	2	-2	21.0335	12.9519	2.4667
517	0	2	-2	30.9341	30.3602	36.2221
518	0	2	-2	6.9862	8.0976	35.6043
519	0	2	-2	38.3423	36.9803	18.5992
520	0	2	-2	19.9755	9.8403	19.8981
521	0	2	-2	39.7355	38.2854	33.2713
522	0	2	-2	14.9905	26.4844	41.9776
523	0	2	-2	12.4895	35.3630	26.7965
524	0	2	-2	37.8039	28.4368	18.7311
525	0	2	-2	15.1454	3.5344	30.2541
526	0	2	-2	35.6446	2.7087	1.6251
527	0	2	-2	37.3411	23.7398	22.5620
528	0	2	-2	5.1407	21.4872	36.4634
529	0	2	-2	42.0285	33.9363	37.4966
530	0	2	-2	28.3827	16.6903	20.6512
531	0	2	-2	11.6794	31.2213	41.6504
532	0	2	-2	29.7173	8.8952	15.6762
533	0	2	-2	35.7773	40.8060	43.0308
534	0	2	-2	22.7782	25.2583	17.3731
535	0	2	-2	0.6761	10.2659	3.3021
536	0	2	-2	29.0817	19.0563	16.5194
537	0	2	-2	0.8228	15.2041	36.1172
538	0	2	-2	9.0433	35.9206	36.7775
539	0	2	-2	6.9678	1.4707	13.4070
540	0	2	-2	8.5495	10.0501	11.1687
541	0	2	-2	13.6538	28.9332	23.8008
542	0	2	-2	27.2156	13.4444	2.4104
543	0	2	-2	31.8243	19.4840	31.2540
544	0	2	-2	26.0487	24.6576	7.2555
545	0	2	-2	13.5783	12.3663	39.5561
546	0	2	-2	7.3301	43.0392	6.8493
547	0	2	-2	26.3936	32.8202	22.3021
548	0	2	-2	23.1451	41.3070	8.5952
549	0	2	-2	6.0825	36.8864	36.1738
550	0	2	-2	18.3496	11.1966	39.4645
551	0	2	-2	39.4781	1.7497	20.5760
552	0	2	-2	7.8970	19.8295	34.1654
553	0	2	-2	38.7285	15.1720	15.6454
554	0	2	-2	2.9910	24.8172	24.3251
555	0	2	-2	7.5463	5.9451	9.0372
556	0	2	-2	3.2966	12.6759	31.4170
557	0	2	-2	32.9089	38.3841	39.0754
558	0	2	-2	5.5146	33.6953	5.9998
559	0	2	-2	40.1024	34.6527	6.7592
560	0	2	-2	15.4976	1.6683	17.2385
561	0	2	-2	2.5734	28.9355	8.1739
562	0	2	-2	31.2169	26.3065	42.5954
563	0	2	-2	2.2314	18.2459	39.3942
564	0	2	-2	33.8689	10.6380	7.9157
565	0	2	-2	17.4450	20.6267	17.2571
566	0	2	-2	11.2482	10.8407	4.2109
567	0	2	-2	25.7536	27.4157	25.1281
568	0	2	-2	0.1446	40.8980	29.6146
569	0	2	-2	10.8768	36.1983	5.9083
570	0	2	-2	20.6307	2.6758	39.6193
571	0	2	-2	1.9331	25.0571	35.4190
572	0	2	-2	39.3450	22.0751	24.3585
573	0	2	-2	38.5716	0.8403	6.0691
574	0	2	-2	13.8766	9.2735	22.7433
575	0	2	-2	27.6341	22.5844	20.4678
576	0	2	-2	37.6828	36.6165	11.1213
577	0	2	-2	32.8763	10.7179	15.6751
578	0	2	-2	1.8399	2.3406	33.8780
579	0	2	-2	36.4345	17.7400	37.7284
580	0	2	-2	42.3064	26.9292	12.3823
581	0	2	-2	28.3980	17.9025	41.1450
582	0	2	-2	38.5339	23.3739	8.3375
583	0	2	-2	42.2389	23.2179	38.6798
584	0	2	-2	16.7086	31.1871	27.6363
585	0	2	-2	33.3407	16.0040	5.5581
586	0	2	-2	37.0263	36.5315	24.6015
587	0	2	-2	11.3986	41.8691	23.8337
588	0	2	-2	35.6470	29.4558	14.0603
589	0	2	-2	25.7602	27.2162	12.4189
590	0	2	-2	15.5132	12.8464	19.7507
591	0	2	-2	42.6452	18.5750	30.8799
592	0	2	-2	7.0777	39.1916	35.2621
593	0	2	-2	35.8885	10.3806	6.3894
594	0	2	-2	21.9622	27.8417	8.6050
595	0	2	-2	13.9131	33.7511	32.2940
596	0	2	-2	23.3600	14.1231	7.4378
597	0	2	-2	13.0283	3.1550	5.3139
598	0	2	-2	34.0484	40.9291	29.1838
599	0	2	-2	32.5661	36.6312	26.6669
600	0	2	-2	10.4432	10.9820	28.1299
601	0	2	-2	23.9186	22.5720	41.5118
602	0	2	-2	42.5119	42.4978	0.7487
603	0	2	-2	26.5375	18.9456	28.9154
604	0	2	-2	43.0612	15.0597	38.1103
605	0	2	-2	31.6529	34.3301	3.6322
606	0	2	-2	10.5152	25.2445	32.1510
607	0	2	-2	41.9595	10.9197	40.5258
608	0	2	-2	20.4715	7.8022	39.1448
609	0	2	-2	31.6489	11.9368	25.4916
610	0	2	-2	2.1235	36.8025	30.7016
611	0	2	-2	7.8374	17.3915	31.6639
612	0	2	-2	36.8436	6.7357	1.0089
613	0	2	-2	36.2315	23.1707	18.9322
614	0	2	-2	27.8568	31.8326	15.9517
615	0	2	-2	15.1115	30.1669	24.5409
616	0	2	-2	12.5031	30.8208	2.9586
617	0	2	-2	38.3841	25.1058	33.9021
618	0	2	-2	29.6701	19.0228	1.6557
619	0	2	-2	38.8098	6.6829	36.8436
620	0	2	-2	22.2034	17.1658	18.2213
621	0	2	-2	21.4100	11.1314	9.0277
622	0	2	-2	4.9020	28.9273	13.7906
623	0	2	-2	4.3686	27.9879	7.8530
624	0	2	-2	1.2601	13.9134	11.5810
625	0	2	-2	1.3778	19.6872	6.0218
626	0	2	-2	0.1002	4.6025	22.4009
627	0	2	-2	36.5489	33.6695	10.8412
628	0	2	-2	21.7456	11.1353	41.1237
629	0	2	-2	7.3080	38.9896	41.1050
630	0	2	-2	4.7258	7.5441	19.3061
631	0	2	-2	19.4615	12.3900	19.4985
632	0	2	-2	6.3187	12.5645	21.3336
633	0	2	-2	10.2347	10.5528	3.5368
634	0	2	-2	22.2723	4.0692	18.0938
635	0	2	-2	8.9974	33.8381	0.2807
636	0	2	-2	36.1661	7.9652	28.9696
637	0	2	-2	24.2499	40.2821	10.6159
638	0	2	-2	28.3604	31.2310	3.6736
639	0	2	-2	3.4036	7.6492	41.7603
640	0	2	-2	8.2264	31.6058	17.0920
641	0	2	-2	35.0216	3.1574	30.6640
642	0	2	-2	35.5684	13.9905	22.9047
643	0	2	-2	10.6928	24.9027	14.2564
644	0	2	-2	5.0328	37.3311	7.6983
645	0	2	-2	11.7465	17.7518	12.0555
646	0	2	-2	19.7116	21.9761	18.4777
647	0	2	-2	6.4227	14.0499	25.6435
648	0	2	-2	28.9702	21.8192	10.2028
649	0	2	-2	1.7287	1.7894	35.7113
650	0	2	-2	35.2053	29.0103	43.0005
651	0	2	-2	34.5617	8.0673	16.6933
652	0	2	-2	0.6169	23.6640	39.1918
653	0	2	-2	20.2865	11.0708	34.3247
654	0	2	-2	8.3512	3.0900	13.5178
655	0	2	-2	2.8464	10.6127	37.3283
656	0	2	-2	26.6290	9.0883	17.2535
657	0	2	-2	14.8047	7.0466	13.1125
658	0	2	-2	41.6607	23.1392	34.8605
659	0	2	-2	24.9197	35.8960	15.0856
660	0	2	-2	6.2930	19.4880	12.7389
661	0	2	-2	12.5688	28.2314	14.2096
662	0	2	-2	16.8061	21.3192	0.1788
663	0	2	-2	36.5203	7.1825	27.2056
664	0	2	-2	20.3430	17.9596	34.1549
665	0	2	-2	23.2010	41.7444	34.6621
666	0	2	-2	35.4020	33.8963	23.1961

Bonds

1	1	1	2
2	2	2	3
3	1	3	4
4	1	5	6
5	2	6	7
6	1	7	8
7	1	9	10
8	2	10	11
9	1	11	12
10	1	13	14
11	2	14	15
12	1	15	16
13	1	17	18
14	2	18	19
15	1	19	20
16	1	21	22
17	2	22	23
18	1	23	24
19	1	25	26
20	2	26	27
21	1	27	28
22	1	29	30
23	2	30	31
24	1	31	32
25	1	33	34
26	2	34	35
27	1	35	36
28	1	37	38
29	2	38	39
30	1	39	40
31	1	41	42
32	2	42	43
33	1	43	44
34	1	45	46
35	2	46	47
36	1	47	48
37	1	49	50
38	2	50	51
39	1	51	52
40	1	53	54
41	2	54	55
42	1	55	56
43	1	57	58
44	2	58	59
45	1	59	60
46	1	61	62
47	2	62	63
48	1	63	64
49	1	65	66
50	2	66	67
51	1	67	68
52	1	69	70
53	2	70	71
54	1	71	72
55	1	73	74
56	2	74	75
57	1	75	76
58	1	77	78
59	2	78	79
60	1	79	80
61	1	81	82
62	2	82	83
63	1	83	84
64	1	85	86
65	2	86	87
66	1	87	88
67	1	89	90
68	2	90	91
69	1	91	92
70	1	93	94
71	2	94	95
72	1	95	96
73	1	97	98
74	2	98	99
75	1	99	100
76	1	101	102
77	2	102	103
78	1	103	104
79	1	105	106
80	2	106	107
81	1	107	108
82	1	109	110
83	2	110	111
84	1	111	112
85	1	113	114
86	2	114	115
87	1	115	116
88	1	117	118
89	2	118	119
90	1	119	120
91	1	121	122
92	2	122	123
93	1	123	124
94	1	125	126
95	2	126	127
96	1	127	128
97	1	129	130
98	2	130	131
99	1	131	132
100	1	133	134
101	2	134	135
102	1	135	136
103	1	137	138
104	2	138	139
105	1	139	140
106	1	141	142
107	2	142	143
108	1	143	144
109	1	145	146
110	2	146	147
111	1	147	148
112	1	149	150
113	2	150	151
114	1	151	152
115	1	153	154
116	2	154	155
117	1	155	156
118	1	157	158
119	2	158	159
120	1	159	160
121	1	161	162
122	2	162	163
123	1	163	164
124	1	165	166
125	2	166	167
126	1	167	168
127	1	169	170
128	2	170	171
129	1	171	172
130	1	173	174
131	2	174	175
132	1	175	176
133	1	177	178
134	2	178	179
135	1	179	180
136	1	181	182
137	2	182	183
138	1	183	184
139	1	185	186
140	2	186	187
141	1	187	188
142	1	189	190
143	2	190	191
144	1	191	192
145	1	193	194
146	2	194	195
147	1	195	196
148	1	197	198
149	2	198	199
150	1	199	200
151	1	201	202
152	2	202	203
153	1	203	204
154	1	205	206
155	2	206	207
156	1	207	208
157	1	209	210
158	2	210	211
159	1	211	212
160	1	213	214
161	2	214	215
162	1	215	216
163	1	217	218
164	2	218	219
165	1	219	220
166	1	221	222
167	2	222	223
168	1	223	224
169	1	225	226
170	2	226	227
171	1	227	228
172	1	229	230
173	2	230	231
174	1	231	232
175	1	233	234
176	2	234	235
177	1	235	236
178	1	237	238
179	2	238	239
180	1	239	240
181	1	241	242
182	2	242	243
183	1	243	244
184	1	245	246
185	2	246	247
186	1	247	248
187	1	249	250
188	2	250	251
189	1	251	252
190	1	253	254
191	2	254	255
192	1	255	256
193	1	257	258
194	2	258	259
195	1	259	260
196	1	261	262
197	2	262	263
198	1	263	264
199	1	265	266
200	2	266	267
201	1	267	268
202	1	269	270
203	2	270	271
204	1	271	272
205	1	273	274
206	2	274	275
207	1	275	276
208	1	277	278
209	2	278	279
210	1	279	280
211	1	281	282
212	2	282	283
213	1	283	284
214	1	285	286
215	2	286	287
216	1	287	288
217	1	289	290
218	2	290	291
219	1	291	292
220	1	293	294
221	2	294	295
222	1	295	296
223	1	297	298
224	2	298	299
225	1	299	300
226	1	301	302
227	2	302	303
228	1	303	304
229	1	305	306
230	2	306	307
231	1	307	308
232	1	309	310
233	2	310	311
234	1	311	312
235	1	313	314
236	2	314	315
237	1	315	316
238	1	317	318
239	2	318	319
240	1	319	320
241	1	321	322
242	2	322	323
243	1	323	324
244	1	325	326
245	2	326	327
246	1	327	328
247	1	329	330
248	2	330	331
249	1	331	332
250	1	333	334
251	2	334	335
252	1	335	336
253	1	337	338
254	2	338	339
255	1	339	340
256	1	341	342
257	2	342	343
258	1	343	344
259	1	345	346
260	2	346	347
261	1	347	348
262	1	349	350
263	2	350	351
264	1	351	352
265	1	353	354
266	2	354	355
267	1	355	356
268	1	357	358
269	2	358	359
270	1	359	360
271	1	361	362
272	2	362	363
273	1	363	364
274	1	365	366
275	2	366	367
276	1	367	368
277	1	369	370
278	2	370	371
279	1	371	372
280	1	373	374
281	2	374	375
282	1	375	376
283	1	377	378
284	2	378	379
285	1	379	380
286	1	381	382
287	2	382	383
288	1	383	384
289	1	385	386
290	2	386	387
291	1	387	388
292	1	389	390
293	2	390	391
294	1	391	392
295	1	393	394
296	2	394	395
297	1	395	396
298	1	397	398
299	2	398	399
300	1	399	400

Angles

1	1	1	2	3
2	1	2	3	4
3	1	5	6	7
4	1	6	7	8
5	1	9	10	11
6	1	10	11	12
7	1	13	14	15
8	1	14	15	16
9	1	17	18	19
10	1	18	19	20
11	1	21	22	23
12	1	22	23	24
13	1	25	26	27
14	1	26	27	28
15	1	29	30	31
16	1	30	31	32
17	1	33	34	35
18	1	34	35	36
19	1	37	38	39
20	1	38	39	40
21	1	41	42	43
22	1	42	43	44
23	1	45	46	47
24	1	46	47	48
25	1	49	50	51
26	1	50	51	52
27	1	53	54	55
28	1	54	55	56
29	1	57	58	59
30	1	58	59	60
31	1	61	62	63
32	1	62	63	64
33	1	65	66	67
34	1	66	67	68
35	1	69	70	71
36	1	70	71	72
37	1	73	74	75
38	1	74	75	76
39	1	77	78	79
40	1	78	79	80
41	1	81	82	83
42	1	82	83	84
43	1	85	86	87
44	1	86	87	88
45	1	89	90	91
46	1	90	91	92
47	1	93	94	95
48	1	94	95	96
49	1	97	98	99
50	1	98	99	100
51	1	101	102	103
52	1	102	103	104
53	1	105	106	107
54	1	106	107	108
55	1	109	110	111
56	1	110	111	112
57	1	113	114	115
58	1	114	115	116
59	1	117	118	119
60	1	118	119	120
61	1	121	122	123
62	1	122	123	124
63	1	125	126	127
64	1	126	127	128
65	1	129	130	131
66	1	130	131	132
67	1	133	134	135
68	1	134	135	136
69	1	137	138	139
70	1	138	139	140
71	1	141	142	143
72	1	142	143	144
73	1	145	146	147
74	1	146	147	148
75	1	149	150	151
76	1	150	151	152
77	1	153	154	155
78	1	154	155	156
79	1	157	158	159
80	1	158	159	160
81	1	161	162	163
82	1	162	163	164
83	1	165	166	167
84	1	166	167	168
85	1	169	170	171
86	1	170	171	172
87	1	173	174	175
88	1	174	175	176
89	1	177	178	179
90	1	178	179	180
91	1	181	182	183
92	1	182	183	184
93	1	185	186	187
94	1	186	187	188
95	1	189	190	191
96	1	190	191	192
97	1	193	194	195
98	1	194	195	196
99	1	197	198	199
100	1	198	199	200
101	1	201	202	203
102	1	202	203	204
103	1	205	206	207
104	1	206	207	208
105	1	209	210	211
106	1	210	211	212
107	1	213	214	215
108	1	214	215	216