# data file for 100 EtOCS precursors with porosity capabilities 
-4 52 xlo xhi
-4 52 ylo yhi
-4 52 zlo zhi

666 atoms
300 bonds
200 angles
100 dihedrals

3 atom types
3 bond types
1 angle types
11 dihedral types

Masses

	1	28
	2	16
	3	12

Angle Coeffs

	1	3.38	109.5185

Bond Coeffs

	1	20	1.9000
	2	20	1.5384
	3	20	1.5227

Dihedral Coeffs

	1	opls	0.3750	-0.2000	0.6250	-0.1000
	2	opls	0.0179	-0.0075	0.0613	-0.0025
	3	opls	0.0169	-0.0034	0.0596	-0.0029
	4	opls	0.0061	-0.0064	0.0680	-0.0032
	5	opls	5.1866	-0.7573	0.1955	-0.0484
	6	opls	0.0865	-0.0347	0.1369	0.0009
	7	opls	0.0260	-0.0152	0.0313	-0.0022
	8	class2	0.0035	180.0000	0.0027	180.0000	0.0293	0.0000
	9	class2	0.0000	0.0000	0.0107	180.0000	0.0000	0.0000
	10	class2	5.5263	0.0000	0.0530	-180.0000	-0.4549	0.0000
	11	class2	-0.0021	180.0000	0.0068	-180.0000	0.0249	180.0000

MiddleBondTorsion Coeffs

	1	opls
	2	opls
	3	opls
	4	opls
	5	opls
	6	opls
	7	opls
	8	class2	0	0	0	0
	9	class2	0	0	0	0
	10	class2	0	0	0	0
	11	class2	0	0	0	0

EndBondTorsion Coeffs

	1	opls
	2	opls
	3	opls
	4	opls
	5	opls
	6	opls
	7	opls
	8	class2	0	0	0	0	0	0	0	0
	9	class2	0	0	0	0	0	0	0	0
	10	class2	0	0	0	0	0	0	0	0
	11	class2	0	0	0	0	0	0	0	0

AngleTorsion Coeffs

	1	opls
	2	opls
	3	opls
	4	opls
	5	opls
	6	opls
	7	opls
	8	class2	0	0	0	0	0	0	0	0
	9	class2	0	0	0	0	0	0	0	0
	10	class2	0	0	0	0	0	0	0	0
	11	class2	0	0	0	0	0	0	0	0

AngleAngleTorsion Coeffs

	1	opls
	2	opls
	3	opls
	4	opls
	5	opls
	6	opls
	7	opls
	8	class2	0	0	0
	9	class2	0	0	0
	10	class2	0	0	0
	11	class2	0	0	0

BondBond13 Coeffs

	1	opls
	2	opls
	3	opls
	4	opls
	5	opls
	6	opls
	7	opls
	8	class2	0	0	0
	9	class2	0	0	0
	10	class2	0	0	0
	11	class2	0	0	0

Atoms

1	1	1	4	40.7688	41.7430	14.9238
2	1	3	0	40.7688	41.7430	16.8238
3	1	3	0	40.7688	43.1930	17.3378
4	1	1	4	40.7688	43.1930	19.2378
5	2	1	4	33.3862	18.0766	6.3320
6	2	3	0	33.3862	18.0766	8.2320
7	2	3	0	33.3862	19.5266	8.7460
8	2	1	4	33.3862	19.5266	10.6460
9	3	1	4	3.9990	42.5762	25.1928
10	3	3	0	3.9990	42.5762	27.0928
11	3	3	0	3.9990	44.0262	27.6068
12	3	1	4	3.9990	44.0262	29.5068
13	4	1	4	16.3115	23.1587	25.7058
14	4	3	0	16.3115	23.1587	27.6058
15	4	3	0	16.3115	24.6087	28.1198
16	4	1	4	16.3115	24.6087	30.0198
17	5	1	4	11.8159	18.2102	4.2299
18	5	3	0	11.8159	18.2102	6.1299
19	5	3	0	11.8159	19.6602	6.6439
20	5	1	4	11.8159	19.6602	8.5439
21	6	1	4	6.7326	29.9296	9.3067
22	6	3	0	6.7326	29.9296	11.2067
23	6	3	0	6.7326	31.3796	11.7207
24	6	1	4	6.7326	31.3796	13.6207
25	7	1	4	42.3538	14.4757	5.5802
26	7	3	0	42.3538	14.4757	7.4802
27	7	3	0	42.3538	15.9257	7.9942
28	7	1	4	42.3538	15.9257	9.8942
29	8	1	4	25.4447	18.1707	3.9291
30	8	3	0	25.4447	18.1707	5.8291
31	8	3	0	25.4447	19.6207	6.3431
32	8	1	4	25.4447	19.6207	8.2431
33	9	1	4	42.1396	2.5083	39.7536
34	9	3	0	42.1396	2.5083	41.6536
35	9	3	0	42.1396	3.9583	42.1676
36	9	1	4	42.1396	3.9583	44.0676
37	10	1	4	12.4807	14.0621	37.2491
38	10	3	0	12.4807	14.0621	39.1491
39	10	3	0	12.4807	15.5121	39.6631
40	10	1	4	12.4807	15.5121	41.5631
41	11	1	4	39.3205	15.3210	26.7142
42	11	3	0	39.3205	15.3210	28.6142
43	11	3	0	39.3205	16.7710	29.1282
44	11	1	4	39.3205	16.7710	31.0282
45	12	1	4	2.5446	21.5395	38.3310
46	12	3	0	2.5446	21.5395	40.2310
47	12	3	0	2.5446	22.9895	40.7450
48	12	1	4	2.5446	22.9895	42.6450
49	13	1	4	13.1304	29.0792	2.9121
50	13	3	0	13.1304	29.0792	4.8121
51	13	3	0	13.1304	30.5292	5.3261
52	13	1	4	13.1304	30.5292	7.2261
53	14	1	4	36.9780	25.8257	37.1220
54	14	3	0	36.9780	25.8257	39.0220
55	14	3	0	36.9780	27.2757	39.5360
56	14	1	4	36.9780	27.2757	41.4360
57	15	1	4	33.1683	33.5977	8.2646
58	15	3	0	33.1683	33.5977	10.1646
59	15	3	0	33.1683	35.0477	10.6786
60	15	1	4	33.1683	35.0477	12.5786
61	16	1	4	22.5676	30.7032	23.3491
62	16	3	0	22.5676	30.7032	25.2491
63	16	3	0	22.5676	32.1532	25.7631
64	16	1	4	22.5676	32.1532	27.6631
65	17	1	4	30.5101	9.3035	29.2162
66	17	3	0	30.5101	9.3035	31.1162
67	17	3	0	30.5101	10.7535	31.6302
68	17	1	4	30.5101	10.7535	33.5302
69	18	1	4	11.1351	25.8104	1.8084
70	18	3	0	11.1351	25.8104	3.7084
71	18	3	0	11.1351	27.2604	4.2224
72	18	1	4	11.1351	27.2604	6.1224
73	19	1	4	31.4309	18.0790	18.7704
74	19	3	0	31.4309	18.0790	20.6704
75	19	3	0	31.4309	19.5290	21.1844
76	19	1	4	31.4309	19.5290	23.0844
77	20	1	4	0.0800	23.8127	12.1521
78	20	3	0	0.0800	23.8127	14.0521
79	20	3	0	0.0800	25.2627	14.5661
80	20	1	4	0.0800	25.2627	16.4661
81	21	1	4	12.1910	25.8387	12.7058
82	21	3	0	12.1910	25.8387	14.6058
83	21	3	0	12.1910	27.2887	15.1198
84	21	1	4	12.1910	27.2887	17.0198
85	22	1	4	27.6026	13.5537	15.9441
86	22	3	0	27.6026	13.5537	17.8441
87	22	3	0	27.6026	15.0037	18.3581
88	22	1	4	27.6026	15.0037	20.2581
89	23	1	4	13.9548	30.4222	27.6781
90	23	3	0	13.9548	30.4222	29.5781
91	23	3	0	13.9548	31.8722	30.0921
92	23	1	4	13.9548	31.8722	31.9921
93	24	1	4	29.1540	30.7784	16.5310
94	24	3	0	29.1540	30.7784	18.4310
95	24	3	0	29.1540	32.2284	18.9450
96	24	1	4	29.1540	32.2284	20.8450
97	25	1	4	17.7134	30.9858	13.6755
98	25	3	0	17.7134	30.9858	15.5755
99	25	3	0	17.7134	32.4358	16.0895
100	25	1	4	17.7134	32.4358	17.9895
101	26	1	4	8.5694	39.3323	4.5034
102	26	3	0	8.5694	39.3323	6.4034
103	26	3	0	8.5694	40.7823	6.9174
104	26	1	4	8.5694	40.7823	8.8174
105	27	1	4	18.9312	28.4597	36.3341
106	27	3	0	18.9312	28.4597	38.2341
107	27	3	0	18.9312	29.9097	38.7481
108	27	1	4	18.9312	29.9097	40.6481
109	28	1	4	6.8694	3.8089	41.0985
110	28	3	0	6.8694	3.8089	42.9985
111	28	3	0	6.8694	5.2589	43.5125
112	28	1	4	6.8694	5.2589	45.4125
113	29	1	4	36.8995	14.0928	18.7645
114	29	3	0	36.8995	14.0928	20.6645
115	29	3	0	36.8995	15.5428	21.1785
116	29	1	4	36.8995	15.5428	23.0785
117	30	1	4	15.3834	15.8461	0.0167
118	30	3	0	15.3834	15.8461	1.9167
119	30	3	0	15.3834	17.2961	2.4307
120	30	1	4	15.3834	17.2961	4.3307
121	31	1	4	1.0250	42.6179	24.5324
122	31	3	0	1.0250	42.6179	26.4324
123	31	3	0	1.0250	44.0679	26.9464
124	31	1	4	1.0250	44.0679	28.8464
125	32	1	4	11.2671	19.9178	41.2010
126	32	3	0	11.2671	19.9178	43.1010
127	32	3	0	11.2671	21.3678	43.6150
128	32	1	4	11.2671	21.3678	45.5150
129	33	1	4	13.0937	5.6965	35.0338
130	33	3	0	13.0937	5.6965	36.9338
131	33	3	0	13.0937	7.1465	37.4478
132	33	1	4	13.0937	7.1465	39.3478
133	34	1	4	2.3933	38.5867	38.8829
134	34	3	0	2.3933	38.5867	40.7829
135	34	3	0	2.3933	40.0367	41.2969
136	34	1	4	2.3933	40.0367	43.1969
137	35	1	4	15.6412	0.6523	12.3099
138	35	3	0	15.6412	0.6523	14.2099
139	35	3	0	15.6412	2.1023	14.7239
140	35	1	4	15.6412	2.1023	16.6239
141	36	1	4	16.9299	16.0288	8.4757
142	36	3	0	16.9299	16.0288	10.3757
143	36	3	0	16.9299	17.4788	10.8897
144	36	1	4	16.9299	17.4788	12.7897
145	37	1	4	7.0635	40.3893	1.7712
146	37	3	0	7.0635	40.3893	3.6712
147	37	3	0	7.0635	41.8393	4.1852
148	37	1	4	7.0635	41.8393	6.0852
149	38	1	4	10.4837	6.8500	4.9200
150	38	3	0	10.4837	6.8500	6.8200
151	38	3	0	10.4837	8.3000	7.3340
152	38	1	4	10.4837	8.3000	9.2340
153	39	1	4	16.0652	9.9166	19.8079
154	39	3	0	16.0652	9.9166	21.7079
155	39	3	0	16.0652	11.3666	22.2219
156	39	1	4	16.0652	11.3666	24.1219
157	40	1	4	21.3353	39.7839	12.0916
158	40	3	0	21.3353	39.7839	13.9916
159	40	3	0	21.3353	41.2339	14.5056
160	40	1	4	21.3353	41.2339	16.4056
161	41	1	4	39.1025	42.8256	21.5217
162	41	3	0	39.1025	42.8256	23.4217
163	41	3	0	39.1025	44.2756	23.9357
164	41	1	4	39.1025	44.2756	25.8357
165	42	1	4	28.9918	26.8282	20.4225
166	42	3	0	28.9918	26.8282	22.3225
167	42	3	0	28.9918	28.2782	22.8365
168	42	1	4	28.9918	28.2782	24.7365
169	43	1	4	27.7697	28.2234	34.7860
170	43	3	0	27.7697	28.2234	36.6860
171	43	3	0	27.7697	29.6734	37.2000
172	43	1	4	27.7697	29.6734	39.1000
173	44	1	4	21.4949	35.0388	29.6367
174	44	3	0	21.4949	35.0388	31.5367
175	44	3	0	21.4949	36.4888	32.0507
176	44	1	4	21.4949	36.4888	33.9507
177	45	1	4	33.0666	36.8030	1.2585
178	45	3	0	33.0666	36.8030	3.1585
179	45	3	0	33.0666	38.2530	3.6725
180	45	1	4	33.0666	38.2530	5.5725
181	46	1	4	29.3572	20.6429	23.4916
182	46	3	0	29.3572	20.6429	25.3916
183	46	3	0	29.3572	22.0929	25.9056
184	46	1	4	29.3572	22.0929	27.8056
185	47	1	4	3.5936	6.0708	38.7255
186	47	3	0	3.5936	6.0708	40.6255
187	47	3	0	3.5936	7.5208	41.1395
188	47	1	4	3.5936	7.5208	43.0395
189	48	1	4	30.9032	17.3256	14.4106
190	48	3	0	30.9032	17.3256	16.3106
191	48	3	0	30.9032	18.7756	16.8246
192	48	1	4	30.9032	18.7756	18.7246
193	49	1	4	12.0800	37.2024	20.1541
194	49	3	0	12.0800	37.2024	22.0541
195	49	3	0	12.0800	38.6524	22.5681
196	49	1	4	12.0800	38.6524	24.4681
197	50	1	4	35.0333	40.1782	15.9402
198	50	3	0	35.0333	40.1782	17.8402
199	50	3	0	35.0333	41.6282	18.3542
200	50	1	4	35.0333	41.6282	20.2542
201	51	1	4	25.3565	36.0166	5.5062
202	51	3	0	25.3565	36.0166	7.4062
203	51	3	0	25.3565	37.4666	7.9202
204	51	1	4	25.3565	37.4666	9.8202
205	52	1	4	29.6327	8.6087	17.6262
206	52	3	0	29.6327	8.6087	19.5262
207	52	3	0	29.6327	10.0587	20.0402
208	52	1	4	29.6327	10.0587	21.9402
209	53	1	4	16.3612	21.2844	19.6800
210	53	3	0	16.3612	21.2844	21.5800
211	53	3	0	16.3612	22.7344	22.0940
212	53	1	4	16.3612	22.7344	23.9940
213	54	1	4	38.0544	17.8196	6.7541
214	54	3	0	38.0544	17.8196	8.6541
215	54	3	0	38.0544	19.2696	9.1681
216	54	1	4	38.0544	19.2696	11.0681
217	55	1	4	40.3749	1.3946	0.4262
218	55	3	0	40.3749	1.3946	2.3262
219	55	3	0	40.3749	2.8446	2.8402
220	55	1	4	40.3749	2.8446	4.7402
221	56	1	4	14.2373	8.7472	17.1206
222	56	3	0	14.2373	8.7472	19.0206
223	56	3	0	14.2373	10.1972	19.5346
224	56	1	4	14.2373	10.1972	21.4346
225	57	1	4	41.7429	4.7012	17.2144
226	57	3	0	41.7429	4.7012	19.1144
227	57	3	0	41.7429	6.1512	19.6284
228	57	1	4	41.7429	6.1512	21.5284
229	58	1	4	20.0474	36.4661	4.4941
230	58	3	0	20.0474	36.4661	6.3941
231	58	3	0	20.0474	37.9161	6.9081
232	58	1	4	20.0474	37.9161	8.8081
233	59	1	4	7.4731	6.6004	21.6982
234	59	3	0	7.4731	6.6004	23.5982
235	59	3	0	7.4731	8.0504	24.1122
236	59	1	4	7.4731	8.0504	26.0122
237	60	1	4	14.1151	35.6311	12.9664
238	60	3	0	14.1151	35.6311	14.8664
239	60	3	0	14.1151	37.0811	15.3804
240	60	1	4	14.1151	37.0811	17.2804
241	61	1	4	32.7681	16.9932	30.7997
242	61	3	0	32.7681	16.9932	32.6997
243	61	3	0	32.7681	18.4432	33.2137
244	61	1	4	32.7681	18.4432	35.1137
245	62	1	4	3.1748	24.8068	18.0279
246	62	3	0	3.1748	24.8068	19.9279
247	62	3	0	3.1748	26.2568	20.4419
248	62	1	4	3.1748	26.2568	22.3419
249	63	1	4	41.6069	12.6082	19.8487
250	63	3	0	41.6069	12.6082	21.7487
251	63	3	0	41.6069	14.0582	22.2627
252	63	1	4	41.6069	14.0582	24.1627
253	64	1	4	14.7324	14.4372	1.8180
254	64	3	0	14.7324	14.4372	3.7180
255	64	3	0	14.7324	15.8872	4.2320
256	64	1	4	14.7324	15.8872	6.1320
257	65	1	4	27.4986	17.2551	12.3737
258	65	3	0	27.4986	17.2551	14.2737
259	65	3	0	27.4986	18.7051	14.7877
260	65	1	4	27.4986	18.7051	16.6877
261	66	1	4	35.1341	8.9672	11.1281
262	66	3	0	35.1341	8.9672	13.0281
263	66	3	0	35.1341	10.4172	13.5421
264	66	1	4	35.1341	10.4172	15.4421
265	67	1	4	29.8082	13.0233	40.7490
266	67	3	0	29.8082	13.0233	42.6490
267	67	3	0	29.8082	14.4733	43.1630
268	67	1	4	29.8082	14.4733	45.0630
269	68	1	4	32.6181	30.4368	16.0773
270	68	3	0	32.6181	30.4368	17.9773
271	68	3	0	32.6181	31.8868	18.4913
272	68	1	4	32.6181	31.8868	20.3913
273	69	1	4	25.8244	0.1585	34.2439
274	69	3	0	25.8244	0.1585	36.1439
275	69	3	0	25.8244	1.6085	36.6579
276	69	1	4	25.8244	1.6085	38.5579
277	70	1	4	9.5375	29.7630	23.1119
278	70	3	0	9.5375	29.7630	25.0119
279	70	3	0	9.5375	31.2130	25.5259
280	70	1	4	9.5375	31.2130	27.4259
281	71	1	4	34.9358	21.2082	13.2128
282	71	3	0	34.9358	21.2082	15.1128
283	71	3	0	34.9358	22.6582	15.6268
284	71	1	4	34.9358	22.6582	17.5268
285	72	1	4	24.3541	8.3469	8.9385
286	72	3	0	24.3541	8.3469	10.8385
287	72	3	0	24.3541	9.7969	11.3525
288	72	1	4	24.3541	9.7969	13.2525
289	73	1	4	2.4258	38.5363	38.7425
290	73	3	0	2.4258	38.5363	40.6425
291	73	3	0	2.4258	39.9863	41.1565
292	73	1	4	2.4258	39.9863	43.0565
293	74	1	4	8.3642	18.2077	41.5981
294	74	3	0	8.3642	18.2077	43.4981
295	74	3	0	8.3642	19.6577	44.0121
296	74	1	4	8.3642	19.6577	45.9121
297	75	1	4	37.6372	22.0382	0.2331
298	75	3	0	37.6372	22.0382	2.1331
299	75	3	0	37.6372	23.4882	2.6471
300	75	1	4	37.6372	23.4882	4.5471
301	76	1	4	24.6178	1.9409	25.7612
302	76	3	0	24.6178	1.9409	27.6612
303	76	3	0	24.6178	3.3909	28.1752
304	76	1	4	24.6178	3.3909	30.0752
305	77	1	4	23.6421	26.2005	38.3824
306	77	3	0	23.6421	26.2005	40.2824
307	77	3	0	23.6421	27.6505	40.7964
308	77	1	4	23.6421	27.6505	42.6964
309	78	1	4	6.2132	34.1620	38.9670
310	78	3	0	6.2132	34.1620	40.8670
311	78	3	0	6.2132	35.6120	41.3810
312	78	1	4	6.2132	35.6120	43.2810
313	79	1	4	29.6102	13.2178	38.5510
314	79	3	0	29.6102	13.2178	40.4510
315	79	3	0	29.6102	14.6678	40.9650
316	79	1	4	29.6102	14.6678	42.8650
317	80	1	4	28.4818	39.8810	19.0480
318	80	3	0	28.4818	39.8810	20.9480
319	80	3	0	28.4818	41.3310	21.4620
320	80	1	4	28.4818	41.3310	23.3620
321	81	1	4	16.8704	18.9018	42.8105
322	81	3	0	16.8704	18.9018	44.7105
323	81	3	0	16.8704	20.3518	45.2245
324	81	1	4	16.8704	20.3518	47.1245
325	82	1	4	37.1357	14.8171	27.5771
326	82	3	0	37.1357	14.8171	29.4771
327	82	3	0	37.1357	16.2671	29.9911
328	82	1	4	37.1357	16.2671	31.8911
329	83	1	4	16.1003	5.4586	19.8942
330	83	3	0	16.1003	5.4586	21.7942
331	83	3	0	16.1003	6.9086	22.3082
332	83	1	4	16.1003	6.9086	24.2082
333	84	1	4	28.5583	6.8376	18.8906
334	84	3	0	28.5583	6.8376	20.7906
335	84	3	0	28.5583	8.2876	21.3046
336	84	1	4	28.5583	8.2876	23.2046
337	85	1	4	7.2322	11.1196	27.2515
338	85	3	0	7.2322	11.1196	29.1515
339	85	3	0	7.2322	12.5696	29.6655
340	85	1	4	7.2322	12.5696	31.5655
341	86	1	4	4.6559	23.2983	19.2483
342	86	3	0	4.6559	23.2983	21.1483
343	86	3	0	4.6559	24.7483	21.6623
344	86	1	4	4.6559	24.7483	23.5623
345	87	1	4	33.3685	4.3857	34.8373
346	87	3	0	33.3685	4.3857	36.7373
347	87	3	0	33.3685	5.8357	37.2513
348	87	1	4	33.3685	5.8357	39.1513
349	88	1	4	20.3582	5.1546	23.1138
350	88	3	0	20.3582	5.1546	25.0138
351	88	3	0	20.3582	6.6046	25.5278
352	88	1	4	20.3582	6.6046	27.4278
353	89	1	4	22.1131	29.8800	17.9904
354	89	3	0	22.1131	29.8800	19.8904
355	89	3	0	22.1131	31.3300	20.4044
356	89	1	4	22.1131	31.3300	22.3044
357	90	1	4	1.1449	11.9458	39.1238
358	90	3	0	1.1449	11.9458	41.0238
359	90	3	0	1.1449	13.3958	41.5378
360	90	1	4	1.1449	13.3958	43.4378
361	91	1	4	18.4442	31.6481	35.6245
362	91	3	0	18.4442	31.6481	37.5245
363	91	3	0	18.4442	33.0981	38.0385
364	91	1	4	18.4442	33.0981	39.9385
365	92	1	4	6.7800	14.1577	34.7162
366	92	3	0	6.7800	14.1577	36.6162
367	92	3	0	6.7800	15.6077	37.1302
368	92	1	4	6.7800	15.6077	39.0302
369	93	1	4	39.6017	23.7826	34.4315
370	93	3	0	39.6017	23.7826	36.3315
371	93	3	0	39.6017	25.2326	36.8455
372	93	1	4	39.6017	25.2326	38.7455
373	94	1	4	41.7064	30.1316	21.4359
374	94	3	0	41.7064	30.1316	23.3359
375	94	3	0	41.7064	31.5816	23.8499
376	94	1	4	41.7064	31.5816	25.7499
377	95	1	4	38.5909	28.8952	10.7422
378	95	3	0	38.5909	28.8952	12.6422
379	95	3	0	38.5909	30.3452	13.1562
380	95	1	4	38.5909	30.3452	15.0562
381	96	1	4	35.9182	42.9901	18.8500
382	96	3	0	35.9182	42.9901	20.7500
383	96	3	0	35.9182	44.4401	21.2640
384	96	1	4	35.9182	44.4401	23.1640
385	97	1	4	14.2225	24.0258	30.4554
386	97	3	0	14.2225	24.0258	32.3554
387	97	3	0	14.2225	25.4758	32.8694
388	97	1	4	14.2225	25.4758	34.7694
389	98	1	4	19.8023	6.2164	15.8416
390	98	3	0	19.8023	6.2164	17.7416
391	98	3	0	19.8023	7.6664	18.2556
392	98	1	4	19.8023	7.6664	20.1556
393	99	1	4	12.1137	29.4113	26.8537
394	99	3	0	12.1137	29.4113	28.7537
395	99	3	0	12.1137	30.8613	29.2677
396	99	1	4	12.1137	30.8613	31.1677
397	100	1	4	24.4800	37.5222	36.6723
398	100	3	0	24.4800	37.5222	38.5723
399	100	3	0	24.4800	38.9722	39.0863
400	100	1	4	24.4800	38.9722	40.9863
401	0	2	-2	0.5403	22.1177	31.0329
402	0	2	-2	32.5269	27.2511	20.5359
403	0	2	-2	19.0744	28.5511	14.2672
404	0	2	-2	11.7590	21.1852	8.8175
405	0	2	-2	15.3932	8.3800	18.1523
406	0	2	-2	3.3161	33.1449	33.7042
407	0	2	-2	28.9272	10.0284	23.0503
408	0	2	-2	31.4180	28.3283	23.2446
409	0	2	-2	3.7164	25.8852	24.9207
410	0	2	-2	10.3485	19.6801	2.8859
411	0	2	-2	42.7167	13.2390	38.6973
412	0	2	-2	3.9958	21.5732	22.1969
413	0	2	-2	6.4751	19.8395	15.2767
414	0	2	-2	34.6759	9.2318	18.1381
415	0	2	-2	31.3839	24.1946	30.9777
416	0	2	-2	20.1334	39.1122	24.5359
417	0	2	-2	16.0198	40.7290	15.4630
418	0	2	-2	33.2095	22.8376	29.1108
419	0	2	-2	5.8906	40.9684	30.4358
420	0	2	-2	0.8437	8.6460	24.8749
421	0	2	-2	37.0738	3.6167	23.3779
422	0	2	-2	27.9474	11.3578	35.9305
423	0	2	-2	35.4144	2.5960	8.0556
424	0	2	-2	17.6160	2.8452	33.6258
425	0	2	-2	22.6659	20.6965	23.3527
426	0	2	-2	38.9024	11.4744	1.3745
427	0	2	-2	30.7439	40.4943	6.2710
428	0	2	-2	30.7771	33.0918	0.0319
429	0	2	-2	28.5573	23.6055	42.1874
430	0	2	-2	10.1317	34.2336	1.2087
431	0	2	-2	5.8865	25.6431	36.8523
432	0	2	-2	26.8433	24.1230	21.8517
433	0	2	-2	35.4027	9.4325	15.6833
434	0	2	-2	39.4777	22.8111	37.5251
435	0	2	-2	39.4178	1.2783	33.0165
436	0	2	-2	16.7075	38.2417	37.8798
437	0	2	-2	11.8068	17.6947	19.1628
438	0	2	-2	40.5970	36.0479	34.0087
439	0	2	-2	16.9162	1.3819	29.0781
440	0	2	-2	21.8102	11.2073	9.6055
441	0	2	-2	31.8962	10.0130	6.1239
442	0	2	-2	5.4375	25.4394	1.6130
443	0	2	-2	32.0696	31.3167	36.6156
444	0	2	-2	8.2289	36.4109	27.1148
445	0	2	-2	10.2443	9.9682	2.7078
446	0	2	-2	40.2671	5.5146	41.8376
447	0	2	-2	18.6439	10.3977	4.5623
448	0	2	-2	34.6465	30.2722	10.6501
449	0	2	-2	27.2915	27.8174	7.2740
450	0	2	-2	3.2581	28.5415	13.9540
451	0	2	-2	32.4481	12.4134	15.7852
452	0	2	-2	31.2409	7.2095	30.8048
453	0	2	-2	14.4406	6.4452	34.4082
454	0	2	-2	21.3466	29.2697	31.1303
455	0	2	-2	30.2406	16.0927	11.1056
456	0	2	-2	20.1628	23.3990	41.5110
457	0	2	-2	15.8020	33.3696	29.5063
458	0	2	-2	23.1582	21.5311	1.5405
459	0	2	-2	4.8861	31.8267	19.8390
460	0	2	-2	32.1116	38.6209	33.9777
461	0	2	-2	30.5201	21.5231	32.4280
462	0	2	-2	19.6572	24.5275	9.8832
463	0	2	-2	7.1633	13.2455	25.5329
464	0	2	-2	11.4306	16.8681	35.8790
465	0	2	-2	23.8800	26.1081	20.9765
466	0	2	-2	11.6593	36.2437	13.5175
467	0	2	-2	25.5074	13.4303	26.0382
468	0	2	-2	9.3094	6.7484	42.8113
469	0	2	-2	19.5577	42.8858	17.5877
470	0	2	-2	37.0677	26.2591	38.5157
471	0	2	-2	37.3995	33.8355	22.4985
472	0	2	-2	32.4847	16.9947	2.7141
473	0	2	-2	17.9501	28.2149	22.3811
474	0	2	-2	4.6692	11.8229	18.8692
475	0	2	-2	14.3830	2.2256	19.8968
476	0	2	-2	2.2382	9.8348	36.5371
477	0	2	-2	36.6998	21.0998	12.7291
478	0	2	-2	26.3917	32.3728	30.3290
479	0	2	-2	24.9414	19.5248	15.1356
480	0	2	-2	8.6019	0.0082	11.9292
481	0	2	-2	35.1110	15.9891	27.5976
482	0	2	-2	6.7954	8.2135	41.4550
483	0	2	-2	40.1345	18.4053	5.2124
484	0	2	-2	30.1164	7.9445	30.9359
485	0	2	-2	0.4441	18.7956	8.5130
486	0	2	-2	41.3995	1.0806	25.1530
487	0	2	-2	38.6751	1.1342	18.7688
488	0	2	-2	36.6010	32.7483	17.1950
489	0	2	-2	42.7606	0.0334	2.3311
490	0	2	-2	25.5870	26.4824	29.1176
491	0	2	-2	11.4082	40.7475	7.0739
492	0	2	-2	35.8990	12.9791	27.1172
493	0	2	-2	15.5892	23.3089	4.8581
494	0	2	-2	14.3016	36.0600	23.6331
495	0	2	-2	10.5714	5.5306	2.6691
496	0	2	-2	30.9500	29.5082	38.1212
497	0	2	-2	38.7762	13.1473	14.2426
498	0	2	-2	41.9665	19.4472	3.1673
499	0	2	-2	27.0212	18.2701	10.0529
500	0	2	-2	36.6549	14.0347	26.1806
501	0	2	-2	12.3314	11.3545	16.5072
502	0	2	-2	26.3802	30.8463	13.2504
503	0	2	-2	11.0094	11.2662	28.0289
504	0	2	-2	12.0682	20.5919	0.6987
505	0	2	-2	24.4432	27.8910	32.7055
506	0	2	-2	19.2689	22.8221	23.6292
507	0	2	-2	6.3173	36.5838	37.8781
508	0	2	-2	15.9514	41.0362	18.8252
509	0	2	-2	32.4137	4.1192	23.6762
510	0	2	-2	21.7066	6.8494	18.5347
511	0	2	-2	21.0034	28.6282	38.3370
512	0	2	-2	21.6443	34.6967	35.9753
513	0	2	-2	19.7346	28.8888	20.6390
514	0	2	-2	27.2609	34.8984	21.4214
515	0	2	-2	0.3003	5.5445	28.4359
516	0	2	-2	2.5231	15.7241	18.0973
517	0	2	-2	24.6835	25.3392	3.6072
518	0	2	-2	13.5801	8.5848	10.9055
519	0	2	-2	34.7231	8.5819	10.2327
520	0	2	-2	11.6026	23.0111	6.7028
521	0	2	-2	9.4481	19.5091	26.2904
522	0	2	-2	19.9674	27.4595	31.1158
523	0	2	-2	12.0623	15.0431	6.5342
524	0	2	-2	15.0615	24.0447	7.7509
525	0	2	-2	1.2696	28.5845	8.1113
526	0	2	-2	15.7818	17.0630	40.0149
527	0	2	-2	15.2389	39.3751	14.1960
528	0	2	-2	5.8058	17.4141	21.7802
529	0	2	-2	12.8895	22.2174	17.0323
530	0	2	-2	42.9479	9.9162	11.8819
531	0	2	-2	6.5707	41.9637	15.1591
532	0	2	-2	25.0010	36.6541	26.9297
533	0	2	-2	28.2321	17.1885	40.9979
534	0	2	-2	42.9513	34.3472	17.0834
535	0	2	-2	13.2650	20.5613	14.9789
536	0	2	-2	20.3593	3.5990	40.5382
537	0	2	-2	6.0779	36.2236	6.4048
538	0	2	-2	42.5462	7.3803	41.8862
539	0	2	-2	8.3189	5.0712	21.3477
540	0	2	-2	33.9978	33.0841	27.8021
541	0	2	-2	0.1323	5.1952	24.5535
542	0	2	-2	38.2152	30.3381	39.0368
543	0	2	-2	4.4551	33.0974	22.8723
544	0	2	-2	36.2058	38.0696	19.7515
545	0	2	-2	10.2830	3.9708	31.2268
546	0	2	-2	5.0739	15.0578	1.2974
547	0	2	-2	9.0545	41.3985	19.0765
548	0	2	-2	21.1817	39.5147	35.9739
549	0	2	-2	29.3492	9.1487	20.3074
550	0	2	-2	36.7547	8.1104	42.5628
551	0	2	-2	18.8623	16.9770	2.9301
552	0	2	-2	17.1416	41.9704	14.9261
553	0	2	-2	24.5564	7.5158	23.3758
554	0	2	-2	20.2593	27.8124	41.3686
555	0	2	-2	17.6920	25.0418	19.4827
556	0	2	-2	36.6194	4.4711	30.1899
557	0	2	-2	28.9496	11.7270	30.1169
558	0	2	-2	37.3465	23.1341	10.0957
559	0	2	-2	38.4663	13.4962	32.3348
560	0	2	-2	39.3110	18.6742	9.5283
561	0	2	-2	32.1876	40.3592	11.7689
562	0	2	-2	13.0867	13.9877	20.4429
563	0	2	-2	18.3061	19.0500	0.8408
564	0	2	-2	20.6382	39.9612	32.0951
565	0	2	-2	0.8751	32.3823	16.4232
566	0	2	-2	23.0192	22.6204	34.1221
567	0	2	-2	16.6540	42.7863	20.0973
568	0	2	-2	11.8608	33.7118	16.6278
569	0	2	-2	41.3101	32.9327	16.0106
570	0	2	-2	33.7284	42.5278	4.3999
571	0	2	-2	22.9699	41.1577	7.9592
572	0	2	-2	35.9046	8.2669	39.4953
573	0	2	-2	20.2283	41.3800	30.8716
574	0	2	-2	9.4610	18.7892	2.9325
575	0	2	-2	38.7232	40.9439	31.9392
576	0	2	-2	20.7064	19.5492	30.8263
577	0	2	-2	19.3849	22.0189	2.0772
578	0	2	-2	7.6291	2.3958	41.2034
579	0	2	-2	3.0379	12.9656	41.7317
580	0	2	-2	11.3185	3.9712	19.7712
581	0	2	-2	7.0944	36.4505	36.5985
582	0	2	-2	3.3223	8.9252	28.6028
583	0	2	-2	40.2790	38.7618	0.2305
584	0	2	-2	4.3112	15.3141	34.4476
585	0	2	-2	18.6056	28.6538	3.2565
586	0	2	-2	13.3081	23.2405	32.5954
587	0	2	-2	42.8723	16.1496	37.2534
588	0	2	-2	9.8859	9.9075	0.6205
589	0	2	-2	0.6301	15.2822	9.2989
590	0	2	-2	27.7203	36.9477	20.0719
591	0	2	-2	10.6341	28.4691	18.3281
592	0	2	-2	11.7718	18.1039	0.0707
593	0	2	-2	1.6408	29.7205	1.2160
594	0	2	-2	22.9671	16.5159	37.6922
595	0	2	-2	4.9348	10.2824	0.2579
596	0	2	-2	35.2848	40.9432	0.0357
597	0	2	-2	20.3924	5.1350	15.1831
598	0	2	-2	31.2421	19.6276	24.7364
599	0	2	-2	9.5056	31.6636	13.3749
600	0	2	-2	24.3306	40.8099	20.4292
601	0	2	-2	4.9664	40.8345	23.9721
602	0	2	-2	19.2017	23.1427	38.5860
603	0	2	-2	37.7209	16.4489	39.1383
604	0	2	-2	6.7900	3.4327	35.8012
605	0	2	-2	37.5846	9.4997	23.8297
606	0	2	-2	42.5838	42.1940	34.7824
607	0	2	-2	38.4366	19.9398	29.2221
608	0	2	-2	41.5862	41.9111	28.9124
609	0	2	-2	6.9368	39.3119	27.0430
610	0	2	-2	28.4948	34.0133	7.0293
611	0	2	-2	21.8308	26.0809	14.8649
612	0	2	-2	37.6553	4.3826	38.6270
613	0	2	-2	11.1463	20.6738	27.4064
614	0	2	-2	29.5061	23.1256	18.2129
615	0	2	-2	26.6240	20.7328	35.9880
616	0	2	-2	34.5638	3.1264	8.4624
617	0	2	-2	7.2870	12.1946	26.6476
618	0	2	-2	23.2498	19.9571	11.4962
619	0	2	-2	42.1298	5.3633	37.6646
620	0	2	-2	6.0630	32.0475	6.6813
621	0	2	-2	23.5295	27.6414	2.3378
622	0	2	-2	1.7131	37.3317	3.0155
623	0	2	-2	15.0076	4.3637	20.2449
624	0	2	-2	40.3441	25.0788	10.7550
625	0	2	-2	6.6507	21.2133	18.4565
626	0	2	-2	28.0762	18.4709	6.1231
627	0	2	-2	19.0457	39.7329	34.7636
628	0	2	-2	37.4408	25.3755	1.6871
629	0	2	-2	10.1671	3.5307	8.6897
630	0	2	-2	37.5397	19.5720	33.8691
631	0	2	-2	25.7690	6.7300	2.3968
632	0	2	-2	35.4659	38.5542	33.8237
633	0	2	-2	31.3587	12.1801	16.7139
634	0	2	-2	39.6614	12.9853	33.2395
635	0	2	-2	14.0538	38.0236	15.0308
636	0	2	-2	32.1532	3.6284	0.8204
637	0	2	-2	0.7871	41.1063	5.1666
638	0	2	-2	34.0233	29.5647	34.4413
639	0	2	-2	16.0122	41.9407	32.4850
640	0	2	-2	6.6729	24.4670	23.0812
641	0	2	-2	4.4710	18.0758	17.7420
642	0	2	-2	0.7054	8.4903	42.6668
643	0	2	-2	30.0894	32.2064	31.9834
644	0	2	-2	26.3193	24.6146	18.4452
645	0	2	-2	23.7603	31.6274	1.5822
646	0	2	-2	27.9482	20.4088	11.3813
647	0	2	-2	19.6004	28.9799	21.5582
648	0	2	-2	30.6929	11.2517	5.7808
649	0	2	-2	23.0314	10.2598	10.8938
650	0	2	-2	4.1101	27.8261	25.6489
651	0	2	-2	29.2315	36.1633	6.7425
652	0	2	-2	42.6936	2.3254	31.7976
653	0	2	-2	21.1123	22.4243	12.7074
654	0	2	-2	38.1437	34.6237	21.7630
655	0	2	-2	30.1481	15.6775	4.5167
656	0	2	-2	40.7909	17.6558	8.4210
657	0	2	-2	34.1136	37.1823	22.7557
658	0	2	-2	4.2305	34.6581	23.3963
659	0	2	-2	33.0168	11.5851	24.4585
660	0	2	-2	18.7093	11.6035	20.3512
661	0	2	-2	37.2838	40.8008	15.6282
662	0	2	-2	21.4550	14.4137	22.6342
663	0	2	-2	11.7190	12.5601	34.2177
664	0	2	-2	11.5581	30.7308	12.3690
665	0	2	-2	3.0579	14.2787	19.9968
666	0	2	-2	23.9611	28.5361	22.1268

Bonds

1	1	1	2
2	2	2	3
3	1	3	4
4	1	5	6
5	2	6	7
6	1	7	8
7	1	9	10
8	2	10	11
9	1	11	12
10	1	13	14
11	2	14	15
12	1	15	16
13	1	17	18
14	2	18	19
15	1	19	20
16	1	21	22
17	2	22	23
18	1	23	24
19	1	25	26
20	2	26	27
21	1	27	28
22	1	29	30
23	2	30	31
24	1	31	32
25	1	33	34
26	2	34	35
27	1	35	36
28	1	37	38
29	2	38	39
30	1	39	40
31	1	41	42
32	2	42	43
33	1	43	44
34	1	45	46
35	2	46	47
36	1	47	48
37	1	49	50
38	2	50	51
39	1	51	52
40	1	53	54
41	2	54	55
42	1	55	56
43	1	57	58
44	2	58	59
45	1	59	60
46	1	61	62
47	2	62	63
48	1	63	64
49	1	65	66
50	2	66	67
51	1	67	68
52	1	69	70
53	2	70	71
54	1	71	72
55	1	73	74
56	2	74	75
57	1	75	76
58	1	77	78
59	2	78	79
60	1	79	80
61	1	81	82
62	2	82	83
63	1	83	84
64	1	85	86
65	2	86	87
66	1	87	88
67	1	89	90
68	2	90	91
69	1	91	92
70	1	93	94
71	2	94	95
72	1	95	96
73	1	97	98
74	2	98	99
75	1	99	100
76	1	101	102
77	2	102	103
78	1	103	104
79	1	105	106
80	2	106	107
81	1	107	108
82	1	109	110
83	2	110	111
84	1	111	112
85	1	113	114
86	2	114	115
87	1	115	116
88	1	117	118
89	2	118	119
90	1	119	120
91	1	121	122
92	2	122	123
93	1	123	124
94	1	125	126
95	2	126	127
96	1	127	128
97	1	129	130
98	2	130	131
99	1	131	132
100	1	133	134
101	2	134	135
102	1	135	136
103	1	137	138
104	2	138	139
105	1	139	140
106	1	141	142
107	2	142	143
108	1	143	144
109	1	145	146
110	2	146	147
111	1	147	148
112	1	149	150
113	2	150	151
114	1	151	152
115	1	153	154
116	2	154	155
117	1	155	156
118	1	157	158
119	2	158	159
120	1	159	160
121	1	161	162
122	2	162	163
123	1	163	164
124	1	165	166
125	2	166	167
126	1	167	168
127	1	169	170
128	2	170	171
129	1	171	172
130	1	173	174
131	2	174	175
132	1	175	176
133	1	177	178
134	2	178	179
135	1	179	180
136	1	181	182
137	2	182	183
138	1	183	184
139	1	185	186
140	2	186	187
141	1	187	188
142	1	189	190
143	2	190	191
144	1	191	192
145	1	193	194
146	2	194	195
147	1	195	196
148	1	197	198
149	2	198	199
150	1	199	200
151	1	201	202
152	2	202	203
153	1	203	204
154	1	205	206
155	2	206	207
156	1	207	208
157	1	209	210
158	2	210	211
159	1	211	212
160	1	213	214
161	2	214	215
162	1	215	216
163	1	217	218
164	2	218	219
165	1	219	220
166	1	221	222
167	2	222	223
168	1	223	224
169	1	225	226
170	2	226	227
171	1	227	228
172	1	229	230
173	2	230	231
174	1	231	232
175	1	233	234
176	2	234	235
177	1	235	236
178	1	237	238
179	2	238	239
180	1	239	240
181	1	241	242
182	2	242	243
183	1	243	244
184	1	245	246
185	2	246	247
186	1	247	248
187	1	249	250
188	2	250	251
189	1	251	252
190	1	253	254
191	2	254	255
192	1	255	256
193	1	257	258
194	2	258	259
195	1	259	260
196	1	261	262
197	2	262	263
198	1	263	264
199	1	265	266
200	2	266	267
201	1	267	268
202	1	269	270
203	2	270	271
204	1	271	272
205	1	273	274
206	2	274	275
207	1	275	276
208	1	277	278
209	2	278	279
210	1	279	280
211	1	281	282
212	2	282	283
213	1	283	284
214	1	285	286
215	2	286	287
216	1	287	288
217	1	289	290
218	2	290	291
219	1	291	292
220	1	293	294
221	2	294	295
222	1	295	296
223	1	297	298
224	2	298	299
225	1	299	300
226	1	301	302
227	2	302	303
228	1	303	304
229	1	305	306
230	2	306	307
231	1	307	308
232	1	309	310
233	2	310	311
234	1	311	312
235	1	313	314
236	2	314	315
237	1	315	316
238	1	317	318
239	2	318	319
240	1	319	320
241	1	321	322
242	2	322	323
243	1	323	324
244	1	325	326
245	2	326	327
246	1	327	328
247	1	329	330
248	2	330	331
249	1	331	332
250	1	333	334
251	2	334	335
252	1	335	336
253	1	337	338
254	2	338	339
255	1	339	340
256	1	341	342
257	2	342	343
258	1	343	344
259	1	345	346
260	2	346	347
261	1	347	348
262	1	349	350
263	2	350	351
264	1	351	352
265	1	353	354
266	2	354	355
267	1	355	356
268	1	357	358
269	2	358	359
270	1	359	360
271	1	361	362
272	2	362	363
273	1	363	364
274	1	365	366
275	2	366	367
276	1	367	368
277	1	369	370
278	2	370	371
279	1	371	372
280	1	373	374
281	2	374	375
282	1	375	376
283	1	377	378
284	2	378	379
285	1	379	380
286	1	381	382
287	2	382	383
288	1	383	384
289	1	385	386
290	2	386	387
291	1	387	388
292	1	389	390
293	2	390	391
294	1	391	392
295	1	393	394
296	2	394	395
297	1	395	396
298	1	397	398
299	2	398	399
300	1	399	400

Angles

1	1	1	2	3
2	1	2	3	4
3	1	5	6	7
4	1	6	7	8
5	1	9	10	11
6	1	10	11	12
7	1	13	14	15
8	1	14	15	16
9	1	17	18	19
10	1	18	19	20
11	1	21	22	23
12	1	22	23	24
13	1	25	26	27
14	1	26	27	28
15	1	29	30	31
16	1	30	31	32
17	1	33	34	35
18	1	34	35	36
19	1	37	38	39
20	1	38	39	40
21	1	41	42	43
22	1	42	43	44
23	1	45	46	47
24	1	46	47	48
25	1	49	50	51
26	1	50	51	52
27	1	53	54	55
28	1	54	55	56
29	1	57	58	59
30	1	58	59	60
31	1	61	62	63
32	1	62	63	64
33	1	65	66	67
34	1	66	67	68
35	1	69	70	71
36	1	70	71	72
37	1	73	74	75
38	1	74	75	76
39	1	77	78	79
40	1	78	79	80
41	1	81	82	83
42	1	82	83	84
43	1	85	86	87
44	1	86	87	88
45	1	89	90	91
46	1	90	91	92
47	1	93	94	95
48	1	94	95	96
49	1	97	98	99
50	1	98	99	100
51	1	101	102	103
52	1	102	103	104
53	1	105	106	107
54	1	106	107	108
55	1	109	110	111
56	1	110	111	112
57	1	113	114	115
58	1	114	115	116
59	1	117	118	119
60	1	118	119	120
61	1	121	122	123
62	1	122	123	124
63	1	125	126	127
64	1	126	127	128
65	1	129	130	131
66	1	130	131	132
67	1	133	134	135
68	1	134	135	136
69	1	137	138	139
70	1	138	139	140
71	1	141	142	143
72	1	142	143	144
73	1	145	146	147
74	1	146	147	148
75	1	149	150	151
76	1	150	151	152
77	1	153	154	155
78	1	154	155	156
79	1	157	158	159
80	1	158	159	160
81	1	161	162	163
82	1	162	163	164
83	1	165	166	167
84	1	166	167	168
85	1	169	170	171
86	1	170	171	172
87	1	173	174	175
88	1	174	175	176
89	1	177	178	179
90	1	178	179	180
91	1	181	182	183
92	1	182	183	184
93	1	185	186	187
94	1	186	187	188
95	1	189	190	191
96	1	190	191	192
97	1	193	194	195
98	1	194	195	196
99	1	197	198	199
100	1	198	199	200
101	1	201	202	203
102	1	202	203	204
103	1	205	206	207
104	1	206	207	208
105	1	209	210	211