 Entering Gaussian System, Link 0=g09
 Input=/afs/.ir.stanford.edu/users/j/o/joeburg/Gaussian Input/EtOCS_no_O_RHF6-31G_SiCCSi_scan_0_180.com
 Output=/afs/.ir.stanford.edu/users/j/o/joeburg/Gaussian Input/EtOCS_no_O_RHF6-31G_SiCCSi_scan_0_180.log
 Initial command:
 /farmshare/software/non-free/gaussian/D.01/g09D.01/l1.exe "/tmp/Gau-19262.inp" -scrdir="/tmp/"
 Entering Link 1 = /farmshare/software/non-free/gaussian/D.01/g09D.01/l1.exe PID=     19264.
  
 Copyright (c) 1988,1990,1992,1993,1995,1998,2003,2009,2013,
            Gaussian, Inc.  All Rights Reserved.
  
 This is part of the Gaussian(R) 09 program.  It is based on
 the Gaussian(R) 03 system (copyright 2003, Gaussian, Inc.),
 the Gaussian(R) 98 system (copyright 1998, Gaussian, Inc.),
 the Gaussian(R) 94 system (copyright 1995, Gaussian, Inc.),
 the Gaussian 92(TM) system (copyright 1992, Gaussian, Inc.),
 the Gaussian 90(TM) system (copyright 1990, Gaussian, Inc.),
 the Gaussian 88(TM) system (copyright 1988, Gaussian, Inc.),
 the Gaussian 86(TM) system (copyright 1986, Carnegie Mellon
 University), and the Gaussian 82(TM) system (copyright 1983,
 Carnegie Mellon University). Gaussian is a federally registered
 trademark of Gaussian, Inc.
  
 This software contains proprietary and confidential information,
 including trade secrets, belonging to Gaussian, Inc.
  
 This software is provided under written license and may be
 used, copied, transmitted, or stored only in accord with that
 written license.
  
 The following legend is applicable only to US Government
 contracts under FAR:
  
                    RESTRICTED RIGHTS LEGEND
  
 Use, reproduction and disclosure by the US Government is
 subject to restrictions as set forth in subparagraphs (a)
 and (c) of the Commercial Computer Software - Restricted
 Rights clause in FAR 52.227-19.
  
 Gaussian, Inc.
 340 Quinnipiac St., Bldg. 40, Wallingford CT 06492
  
  
 ---------------------------------------------------------------
 Warning -- This program may not be used in any manner that
 competes with the business of Gaussian, Inc. or will provide
 assistance to any competitor of Gaussian, Inc.  The licensee
 of this program is prohibited from giving any competitor of
 Gaussian, Inc. access to this program.  By using this program,
 the user acknowledges that Gaussian, Inc. is engaged in the
 business of creating and licensing software in the field of
 computational chemistry and represents and warrants to the
 licensee that it is not a competitor of Gaussian, Inc. and that
 it will not use this program in any manner prohibited above.
 ---------------------------------------------------------------
  

 Cite this work as:
 Gaussian 09, Revision D.01,
 M. J. Frisch, G. W. Trucks, H. B. Schlegel, G. E. Scuseria, 
 M. A. Robb, J. R. Cheeseman, G. Scalmani, V. Barone, B. Mennucci, 
 G. A. Petersson, H. Nakatsuji, M. Caricato, X. Li, H. P. Hratchian, 
 A. F. Izmaylov, J. Bloino, G. Zheng, J. L. Sonnenberg, M. Hada, 
 M. Ehara, K. Toyota, R. Fukuda, J. Hasegawa, M. Ishida, T. Nakajima, 
 Y. Honda, O. Kitao, H. Nakai, T. Vreven, J. A. Montgomery, Jr., 
 J. E. Peralta, F. Ogliaro, M. Bearpark, J. J. Heyd, E. Brothers, 
 K. N. Kudin, V. N. Staroverov, T. Keith, R. Kobayashi, J. Normand, 
 K. Raghavachari, A. Rendell, J. C. Burant, S. S. Iyengar, J. Tomasi, 
 M. Cossi, N. Rega, J. M. Millam, M. Klene, J. E. Knox, J. B. Cross, 
 V. Bakken, C. Adamo, J. Jaramillo, R. Gomperts, R. E. Stratmann, 
 O. Yazyev, A. J. Austin, R. Cammi, C. Pomelli, J. W. Ochterski, 
 R. L. Martin, K. Morokuma, V. G. Zakrzewski, G. A. Voth, 
 P. Salvador, J. J. Dannenberg, S. Dapprich, A. D. Daniels, 
 O. Farkas, J. B. Foresman, J. V. Ortiz, J. Cioslowski, 
 and D. J. Fox, Gaussian, Inc., Wallingford CT, 2013.
 
 ******************************************
 Gaussian 09:  EM64L-G09RevD.01 24-Apr-2013
                 6-Sep-2016 
 ******************************************
 %chk=EtOCS_no_O_RHF6-31G_SiCCSi_scan_0_180.chk
 ---------------------------------------------
 # opt=modredundant hf/6-31g geom=connectivity
 ---------------------------------------------
 1/18=120,19=15,38=1,57=2/1,3;
 2/9=110,12=2,17=6,18=5,40=1/2;
 3/5=1,6=6,11=9,16=1,25=1,30=1,71=1/1,2,3;
 4//1;
 5/5=2,38=5/2;
 6/7=2,8=2,9=2,10=2,28=1/1;
 7//1,2,3,16;
 1/18=20,19=15/3(2);
 2/9=110/2;
 99//99;
 2/9=110/2;
 3/5=1,6=6,11=9,16=1,25=1,30=1,71=1/1,2,3;
 4/5=5,16=3,69=1/1;
 5/5=2,38=5/2;
 7//1,2,3,16;
 1/18=20,19=15/3(-5);
 2/9=110/2;
 6/7=2,8=2,9=2,10=2,19=2,28=1/1;
 99/9=1/99;
 -------------------
 Title Card Required
 -------------------
 Symbolic Z-matrix:
 Charge =  0 Multiplicity = 1
 Si                   -3.16876   4.37037   0.9293 
 H                    -3.03232   4.24873  -0.52929 
 H                    -2.3375    5.48426   1.408 
 H                    -4.57548   4.62703   1.27014 
 C                    -2.58939   2.72215   1.77268 
 H                    -2.6887    2.81069   2.83437 
 H                    -3.19445   1.91136   1.42424 
 C                    -1.11568   2.45327   1.41561 
 H                    -1.03812   1.51793   0.90177 
 H                    -0.53237   2.41726   2.31191 
 Si                   -0.4574    3.87568   0.27236 
 H                    -0.56395   5.16067   0.97828 
 H                     0.94932   3.61902  -0.06848 
 H                    -1.25877   3.92514  -0.95901 
 
 The following ModRedundant input section has been read:
 D       1       5       8      11 S  18 10.000                                
 

 GradGradGradGradGradGradGradGradGradGradGradGradGradGradGradGradGradGrad
 Berny optimization.
 Initialization pass.
                           ----------------------------
                           !    Initial Parameters    !
                           ! (Angstroms and Degrees)  !
 --------------------------                            --------------------------
 ! Name  Definition              Value          Derivative Info.                !
 --------------------------------------------------------------------------------
 ! R1    R(1,2)                  1.47           estimate D2E/DX2                !
 ! R2    R(1,3)                  1.47           estimate D2E/DX2                !
 ! R3    R(1,4)                  1.47           estimate D2E/DX2                !
 ! R4    R(1,5)                  1.94           estimate D2E/DX2                !
 ! R5    R(5,6)                  1.07           estimate D2E/DX2                !
 ! R6    R(5,7)                  1.07           estimate D2E/DX2                !
 ! R7    R(5,8)                  1.54           estimate D2E/DX2                !
 ! R8    R(8,9)                  1.07           estimate D2E/DX2                !
 ! R9    R(8,10)                 1.07           estimate D2E/DX2                !
 ! R10   R(8,11)                 1.94           estimate D2E/DX2                !
 ! R11   R(11,12)                1.47           estimate D2E/DX2                !
 ! R12   R(11,13)                1.47           estimate D2E/DX2                !
 ! R13   R(11,14)                1.47           estimate D2E/DX2                !
 ! A1    A(2,1,3)              109.4712         estimate D2E/DX2                !
 ! A2    A(2,1,4)              109.4712         estimate D2E/DX2                !
 ! A3    A(2,1,5)              109.4712         estimate D2E/DX2                !
 ! A4    A(3,1,4)              109.4712         estimate D2E/DX2                !
 ! A5    A(3,1,5)              109.4712         estimate D2E/DX2                !
 ! A6    A(4,1,5)              109.4712         estimate D2E/DX2                !
 ! A7    A(1,5,6)              109.4712         estimate D2E/DX2                !
 ! A8    A(1,5,7)              109.4712         estimate D2E/DX2                !
 ! A9    A(1,5,8)              109.4712         estimate D2E/DX2                !
 ! A10   A(6,5,7)              109.4712         estimate D2E/DX2                !
 ! A11   A(6,5,8)              109.4712         estimate D2E/DX2                !
 ! A12   A(7,5,8)              109.4712         estimate D2E/DX2                !
 ! A13   A(5,8,9)              109.4712         estimate D2E/DX2                !
 ! A14   A(5,8,10)             109.4712         estimate D2E/DX2                !
 ! A15   A(5,8,11)             109.4712         estimate D2E/DX2                !
 ! A16   A(9,8,10)             109.4712         estimate D2E/DX2                !
 ! A17   A(9,8,11)             109.4712         estimate D2E/DX2                !
 ! A18   A(10,8,11)            109.4712         estimate D2E/DX2                !
 ! A19   A(8,11,12)            109.4712         estimate D2E/DX2                !
 ! A20   A(8,11,13)            109.4712         estimate D2E/DX2                !
 ! A21   A(8,11,14)            109.4712         estimate D2E/DX2                !
 ! A22   A(12,11,13)           109.4712         estimate D2E/DX2                !
 ! A23   A(12,11,14)           109.4712         estimate D2E/DX2                !
 ! A24   A(13,11,14)           109.4712         estimate D2E/DX2                !
 ! D1    D(2,1,5,6)            180.0            estimate D2E/DX2                !
 ! D2    D(2,1,5,7)            -60.0            estimate D2E/DX2                !
 ! D3    D(2,1,5,8)             60.0            estimate D2E/DX2                !
 ! D4    D(3,1,5,6)             60.0            estimate D2E/DX2                !
 ! D5    D(3,1,5,7)            180.0            estimate D2E/DX2                !
 ! D6    D(3,1,5,8)            -60.0            estimate D2E/DX2                !
 ! D7    D(4,1,5,6)            -60.0            estimate D2E/DX2                !
 ! D8    D(4,1,5,7)             60.0            estimate D2E/DX2                !
 ! D9    D(4,1,5,8)            180.0            estimate D2E/DX2                !
 ! D10   D(1,5,8,9)           -120.0            estimate D2E/DX2                !
 ! D11   D(1,5,8,10)           120.0            estimate D2E/DX2                !
 ! D12   D(1,5,8,11)             0.0            Scan                            !
 ! D13   D(6,5,8,9)            120.0            estimate D2E/DX2                !
 ! D14   D(6,5,8,10)             0.0            estimate D2E/DX2                !
 ! D15   D(6,5,8,11)          -120.0            estimate D2E/DX2                !
 ! D16   D(7,5,8,9)              0.0            estimate D2E/DX2                !
 ! D17   D(7,5,8,10)          -120.0            estimate D2E/DX2                !
 ! D18   D(7,5,8,11)           120.0            estimate D2E/DX2                !
 ! D19   D(5,8,11,12)           60.0            estimate D2E/DX2                !
 ! D20   D(5,8,11,13)          180.0            estimate D2E/DX2                !
 ! D21   D(5,8,11,14)          -60.0            estimate D2E/DX2                !
 ! D22   D(9,8,11,12)          180.0            estimate D2E/DX2                !
 ! D23   D(9,8,11,13)          -60.0            estimate D2E/DX2                !
 ! D24   D(9,8,11,14)           60.0            estimate D2E/DX2                !
 ! D25   D(10,8,11,12)         -60.0            estimate D2E/DX2                !
 ! D26   D(10,8,11,13)          60.0            estimate D2E/DX2                !
 ! D27   D(10,8,11,14)         180.0            estimate D2E/DX2                !
 --------------------------------------------------------------------------------
 Trust Radius=3.00D-01 FncErr=1.00D-07 GrdErr=1.00D-07
 Number of optimizations in scan=  19
 Number of steps in this run=     74 maximum allowed number of steps=    100.
 GradGradGradGradGradGradGradGradGradGradGradGradGradGradGradGradGradGrad

                          Input orientation:                          
 ---------------------------------------------------------------------
 Center     Atomic      Atomic             Coordinates (Angstroms)
 Number     Number       Type             X           Y           Z
 ---------------------------------------------------------------------
      1         14           0       -3.168763    4.370374    0.929299
      2          1           0       -3.032319    4.248734   -0.529291
      3          1           0       -2.337502    5.484264    1.407999
      4          1           0       -4.575481    4.627034    1.270136
      5          6           0       -2.589386    2.722152    1.772677
      6          1           0       -2.688702    2.810692    2.834372
      7          1           0       -3.194453    1.911361    1.424235
      8          6           0       -1.115681    2.453270    1.415609
      9          1           0       -1.038124    1.517932    0.901773
     10          1           0       -0.532373    2.417263    2.311910
     11         14           0       -0.457402    3.875677    0.272358
     12          1           0       -0.563953    5.160674    0.978282
     13          1           0        0.949316    3.619017   -0.068479
     14          1           0       -1.258770    3.925144   -0.959009
 ---------------------------------------------------------------------
                    Distance matrix (angstroms):
                    1          2          3          4          5
     1  Si   0.000000
     2  H    1.470000   0.000000
     3  H    1.470000   2.400500   0.000000
     4  H    1.470000   2.400500   2.400500   0.000000
     5  C    1.940000   2.797445   2.797445   2.797445   0.000000
     6  H    2.508459   3.674271   3.050552   3.050552   1.070000
     7  H    2.508459   3.050552   3.674271   3.050552   1.070000
     8  C    2.850778   3.268001   3.268001   4.088598   1.540000
     9  H    3.560451   3.671790   4.204336   4.723887   2.148263
    10  H    3.560451   4.204336   3.671790   4.723887   2.148263
    11  Si   2.833333   2.722501   2.722501   4.303333   2.850778
    12  H    2.722501   3.032696   1.853333   4.057377   3.268001
    13  H    4.303333   4.057377   4.057377   5.773333   4.088598
    14  H    2.722501   1.853333   3.032696   4.057377   3.268001
                    6          7          8          9         10
     6  H    0.000000
     7  H    1.747303   0.000000
     8  C    2.148263   2.148263   0.000000
     9  H    2.851417   2.253333   1.070000   0.000000
    10  H    2.253333   2.851417   1.070000   1.747303   0.000000
    11  Si   3.560451   3.560451   1.940000   2.508459   2.508459
    12  H    3.671790   4.204336   2.797445   3.674271   3.050552
    13  H    4.723887   4.723887   2.797445   3.050552   3.050552
    14  H    4.204336   3.671790   2.797445   3.050552   3.674271
                   11         12         13         14
    11  Si   0.000000
    12  H    1.470000   0.000000
    13  H    1.470000   2.400500   0.000000
    14  H    1.470000   2.400500   2.400500   0.000000
 Stoichiometry    C2H10Si2
 Framework group  C2V[SGV(C2H2Si2),X(H8)]
 Deg. of freedom    11
 Full point group                 C2V     NOp   4
 Largest Abelian subgroup         C2V     NOp   4
 Largest concise Abelian subgroup C2V     NOp   4
                         Standard orientation:                         
 ---------------------------------------------------------------------
 Center     Atomic      Atomic             Coordinates (Angstroms)
 Number     Number       Type             X           Y           Z
 ---------------------------------------------------------------------
      1         14           0        0.000000   -1.416667   -0.570211
      2          1           0        1.200250   -0.926667   -1.263176
      3          1           0       -1.200250   -0.926667   -1.263176
      4          1           0        0.000000   -2.886667   -0.570211
      5          6           0        0.000000   -0.770000    1.258839
      6          1           0       -0.873651   -1.126667    1.763241
      7          1           0        0.873651   -1.126667    1.763241
      8          6           0        0.000000    0.770000    1.258839
      9          1           0        0.873651    1.126667    1.763241
     10          1           0       -0.873651    1.126667    1.763241
     11         14           0        0.000000    1.416667   -0.570211
     12          1           0       -1.200250    0.926667   -1.263176
     13          1           0        0.000000    2.886667   -0.570211
     14          1           0        1.200250    0.926667   -1.263176
 ---------------------------------------------------------------------
 Rotational constants (GHZ):      5.9650696      3.1431898      2.2191094
 Standard basis: 6-31G (6D, 7F)
 There are    23 symmetry adapted cartesian basis functions of A1  symmetry.
 There are     9 symmetry adapted cartesian basis functions of A2  symmetry.
 There are     9 symmetry adapted cartesian basis functions of B1  symmetry.
 There are    23 symmetry adapted cartesian basis functions of B2  symmetry.
 There are    23 symmetry adapted basis functions of A1  symmetry.
 There are     9 symmetry adapted basis functions of A2  symmetry.
 There are     9 symmetry adapted basis functions of B1  symmetry.
 There are    23 symmetry adapted basis functions of B2  symmetry.
    64 basis functions,   176 primitive gaussians,    64 cartesian basis functions
    25 alpha electrons       25 beta electrons
       nuclear repulsion energy       228.5161112656 Hartrees.
 NAtoms=   14 NActive=   14 NUniq=    5 SFac= 4.00D+00 NAtFMM=   60 NAOKFM=F Big=F
 Integral buffers will be    131072 words long.
 Raffenetti 1 integral format.
 Two-electron integral symmetry is turned on.
 One-electron integrals computed using PRISM.
 NBasis=    64 RedAO= T EigKep=  3.62D-03  NBF=    23     9     9    23
 NBsUse=    64 1.00D-06 EigRej= -1.00D+00 NBFU=    23     9     9    23
 ExpMin= 7.78D-02 ExpMax= 1.61D+04 ExpMxC= 2.43D+03 IAcc=2 IRadAn=         4 AccDes= 0.00D+00
 Harris functional with IExCor=  205 and IRadAn=       4 diagonalized for initial guess.
 HarFok:  IExCor=  205 AccDes= 0.00D+00 IRadAn=         4 IDoV= 1 UseB2=F ITyADJ=14
 ICtDFT=  3500011 ScaDFX=  1.000000  1.000000  1.000000  1.000000
 FoFCou: FMM=F IPFlag=           0 FMFlag=      100000 FMFlg1=           0
         NFxFlg=           0 DoJE=T BraDBF=F KetDBF=T FulRan=T
         wScrn=  0.000000 ICntrl=     500 IOpCl=  0 I1Cent=   200000004 NGrid=           0
         NMat0=    1 NMatS0=      1 NMatT0=    0 NMatD0=    1 NMtDS0=    0 NMtDT0=    0
 Petite list used in FoFCou.
 Initial guess orbital symmetries:
       Occupied  (B2) (A1) (B2) (A1) (B2) (A1) (B2) (A1) (A2) (B1)
                 (B2) (A1) (A1) (B2) (A1) (B1) (B2) (A1) (A2) (A1)
                 (B1) (A1) (B2) (B2) (A2)
       Virtual   (A1) (A1) (B2) (B1) (A1) (B1) (A1) (A2) (B2) (B2)
                 (B2) (A2) (A1) (B2) (B1) (A1) (B2) (A2) (B2) (A1)
                 (B2) (A1) (B1) (A1) (B2) (A2) (B2) (B1) (A1) (B2)
                 (A2) (A1) (A1) (B1) (A2) (B2) (A1) (B2) (B2)
 The electronic state of the initial guess is 1-A1.
 Keep R1 ints in memory in symmetry-blocked form, NReq=3056455.
 Requested convergence on RMS density matrix=1.00D-08 within 128 cycles.
 Requested convergence on MAX density matrix=1.00D-06.
 Requested convergence on             energy=1.00D-06.
 No special actions if energy rises.
 SCF Done:  E(RHF) =  -659.192814545     A.U. after   10 cycles
            NFock= 10  Conv=0.39D-08     -V/T= 1.9986

 **********************************************************************

            Population analysis using the SCF density.

 **********************************************************************

 Orbital symmetries:
       Occupied  (B2) (A1) (A1) (B2) (B2) (A1) (A1) (B2) (A2) (B1)
                 (B2) (A1) (A1) (B2) (A1) (B2) (B1) (A1) (B1) (A2)
                 (A1) (A1) (B2) (A2) (B2)
       Virtual   (A1) (B1) (B2) (A1) (A2) (B2) (A1) (B1) (A1) (B2)
                 (A2) (B2) (A1) (B1) (A1) (B2) (B2) (A2) (B2) (A1)
                 (B2) (A1) (B1) (A1) (B2) (A2) (B2) (B1) (A1) (B2)
                 (A1) (A2) (A1) (B1) (B2) (A2) (B2) (A1) (B2)
 The electronic state is 1-A1.
 Alpha  occ. eigenvalues --  -68.76270 -68.76269 -11.22258 -11.22206  -6.13365
 Alpha  occ. eigenvalues --   -6.13364  -4.23930  -4.23930  -4.23812  -4.23810
 Alpha  occ. eigenvalues --   -4.23714  -4.23712  -1.03471  -0.85147  -0.76888
 Alpha  occ. eigenvalues --   -0.67751  -0.63368  -0.56720  -0.52507  -0.51665
 Alpha  occ. eigenvalues --   -0.51140  -0.45667  -0.43381  -0.42565  -0.38353
 Alpha virt. eigenvalues --    0.13471   0.17486   0.17890   0.18263   0.21676
 Alpha virt. eigenvalues --    0.23461   0.23921   0.25437   0.27241   0.32086
 Alpha virt. eigenvalues --    0.35423   0.35834   0.36242   0.38565   0.42282
 Alpha virt. eigenvalues --    0.43467   0.44476   0.48242   0.55316   0.55344
 Alpha virt. eigenvalues --    0.64584   0.79066   0.81049   0.90040   0.93895
 Alpha virt. eigenvalues --    1.02181   1.04819   1.18560   1.22432   1.26384
 Alpha virt. eigenvalues --    1.26537   1.27052   1.29774   1.30347   1.32000
 Alpha virt. eigenvalues --    1.32117   1.38394   1.40076   1.78759
          Condensed to atoms (all electrons):
               1          2          3          4          5          6
     1  Si  11.927448   0.401115   0.401115   0.363521   0.314025  -0.022750
     2  H    0.401115   0.921128  -0.029148  -0.020978  -0.029507   0.000612
     3  H    0.401115  -0.029148   0.921128  -0.020978  -0.029507  -0.000363
     4  H    0.363521  -0.020978  -0.020978   0.889300  -0.024518  -0.000027
     5  C    0.314025  -0.029507  -0.029507  -0.024518   5.653319   0.388673
     6  H   -0.022750   0.000612  -0.000363  -0.000027   0.388673   0.502858
     7  H   -0.022750  -0.000363   0.000612  -0.000027   0.388673  -0.017696
     8  C   -0.054514   0.002719   0.002719   0.001076   0.148356  -0.038742
     9  H    0.004679  -0.000082   0.000013  -0.000035  -0.038742   0.001457
    10  H    0.004679   0.000013  -0.000082  -0.000035  -0.038742  -0.007610
    11  Si  -0.105293  -0.033570  -0.033570   0.006495  -0.054514   0.004679
    12  H   -0.033570   0.000670  -0.038159   0.000167   0.002719  -0.000082
    13  H    0.006495   0.000167   0.000167  -0.000002   0.001076  -0.000035
    14  H   -0.033570  -0.038159   0.000670   0.000167   0.002719   0.000013
               7          8          9         10         11         12
     1  Si  -0.022750  -0.054514   0.004679   0.004679  -0.105293  -0.033570
     2  H   -0.000363   0.002719  -0.000082   0.000013  -0.033570   0.000670
     3  H    0.000612   0.002719   0.000013  -0.000082  -0.033570  -0.038159
     4  H   -0.000027   0.001076  -0.000035  -0.000035   0.006495   0.000167
     5  C    0.388673   0.148356  -0.038742  -0.038742  -0.054514   0.002719
     6  H   -0.017696  -0.038742   0.001457  -0.007610   0.004679  -0.000082
     7  H    0.502858  -0.038742  -0.007610   0.001457   0.004679   0.000013
     8  C   -0.038742   5.653319   0.388673   0.388673   0.314025  -0.029507
     9  H   -0.007610   0.388673   0.502858  -0.017696  -0.022750   0.000612
    10  H    0.001457   0.388673  -0.017696   0.502858  -0.022750  -0.000363
    11  Si   0.004679   0.314025  -0.022750  -0.022750  11.927448   0.401115
    12  H    0.000013  -0.029507   0.000612  -0.000363   0.401115   0.921128
    13  H   -0.000035  -0.024518  -0.000027  -0.000027   0.363521  -0.020978
    14  H   -0.000082  -0.029507  -0.000363   0.000612   0.401115  -0.029148
              13         14
     1  Si   0.006495  -0.033570
     2  H    0.000167  -0.038159
     3  H    0.000167   0.000670
     4  H   -0.000002   0.000167
     5  C    0.001076   0.002719
     6  H   -0.000035   0.000013
     7  H   -0.000035  -0.000082
     8  C   -0.024518  -0.029507
     9  H   -0.000027  -0.000363
    10  H   -0.000027   0.000612
    11  Si   0.363521   0.401115
    12  H   -0.020978  -0.029148
    13  H    0.889300  -0.020978
    14  H   -0.020978   0.921128
 Mulliken charges:
               1
     1  Si   0.849369
     2  H   -0.174618
     3  H   -0.174618
     4  H   -0.194126
     5  C   -0.684031
     6  H    0.189013
     7  H    0.189013
     8  C   -0.684031
     9  H    0.189013
    10  H    0.189013
    11  Si   0.849369
    12  H   -0.174618
    13  H   -0.194126
    14  H   -0.174618
 Sum of Mulliken charges =   0.00000
 Mulliken charges with hydrogens summed into heavy atoms:
               1
     1  Si   0.306006
     5  C   -0.306006
     8  C   -0.306006
    11  Si   0.306006
 Electronic spatial extent (au):  <R**2>=            620.8041
 Charge=              0.0000 electrons
 Dipole moment (field-independent basis, Debye):
    X=              0.0000    Y=              0.0000    Z=              0.8928  Tot=              0.8928
 Quadrupole moment (field-independent basis, Debye-Ang):
   XX=            -44.8222   YY=            -49.2904   ZZ=            -44.9461
   XY=              0.0000   XZ=              0.0000   YZ=              0.0000
 Traceless Quadrupole moment (field-independent basis, Debye-Ang):
   XX=              1.5307   YY=             -2.9375   ZZ=              1.4068
   XY=              0.0000   XZ=              0.0000   YZ=              0.0000
 Octapole moment (field-independent basis, Debye-Ang**2):
  XXX=              0.0000  YYY=              0.0000  ZZZ=              5.3038  XYY=              0.0000
  XXY=              0.0000  XXZ=              8.0195  XZZ=              0.0000  YZZ=              0.0000
  YYZ=              5.7844  XYZ=              0.0000
 Hexadecapole moment (field-independent basis, Debye-Ang**3):
 XXXX=           -108.8207 YYYY=           -617.5337 ZZZZ=           -308.5986 XXXY=              0.0000
 XXXZ=              0.0000 YYYX=              0.0000 YYYZ=              0.0000 ZZZX=              0.0000
 ZZZY=              0.0000 XXYY=           -106.1923 XXZZ=            -69.8454 YYZZ=           -141.0707
 XXYZ=              0.0000 YYXZ=              0.0000 ZZXY=              0.0000
 N-N= 2.285161112656D+02 E-N=-2.024638928779D+03  KE= 6.601263347378D+02
 Symmetry A1   KE= 3.026605569360D+02
 Symmetry A2   KE= 2.843354237932D+01
 Symmetry B1   KE= 2.767859369258D+01
 Symmetry B2   KE= 3.013536417299D+02
 Calling FoFJK, ICntrl=      2127 FMM=F ISym2X=1 I1Cent= 0 IOpClX= 0 NMat=1 NMatS=1 NMatT=0.
 ***** Axes restored to original set *****
 -------------------------------------------------------------------
 Center     Atomic                   Forces (Hartrees/Bohr)
 Number     Number              X              Y              Z
 -------------------------------------------------------------------
      1       14          -0.041382692   -0.005904730    0.018607877
      2        1          -0.012953843    0.003468897   -0.000877787
      3        1          -0.011406795    0.006219873    0.003435697
      4        1          -0.010055325    0.002648466    0.001917291
      5        6           0.003504431    0.015809144   -0.011339348
      6        1          -0.006951421   -0.000362444    0.009045087
      7        1          -0.009904413   -0.005613484    0.000811543
      8        6          -0.002663063    0.016934424   -0.009845012
      9        1           0.006719926   -0.008646650   -0.003216404
     10        1           0.009672919   -0.003395610    0.005017140
     11       14           0.040694441   -0.020879974   -0.001278769
     12        1           0.013087964    0.001750723   -0.002499191
     13        1           0.010096954   -0.001028383   -0.002965448
     14        1           0.011540916   -0.001000252   -0.006812675
 -------------------------------------------------------------------
 Cartesian Forces:  Max     0.041382692 RMS     0.012378905

 GradGradGradGradGradGradGradGradGradGradGradGradGradGradGradGradGradGrad
 Berny optimization.
 FormGI is forming the generalized inverse of G from B-inverse, IUseBI=4.
 Internal  Forces:  Max     0.218526562 RMS     0.048339790
 Search for a local minimum.
 Step number   1 out of a maximum of   74 on scan point     1 out of    19
 All quantities printed in internal units (Hartrees-Bohrs-Radians)
 Mixed Optimization -- RFO/linear search
 Second derivative matrix not updated -- first step.
 ITU=  0
     Eigenvalues ---    0.00239   0.00239   0.01589   0.03841   0.04897
     Eigenvalues ---    0.04897   0.05721   0.05721   0.05721   0.05721
     Eigenvalues ---    0.07655   0.07655   0.10127   0.11701   0.16000
     Eigenvalues ---    0.16000   0.16000   0.16000   0.16000   0.16000
     Eigenvalues ---    0.17593   0.17593   0.18253   0.18253   0.18253
     Eigenvalues ---    0.18253   0.18253   0.18253   0.21948   0.21948
     Eigenvalues ---    0.28519   0.37230   0.37230   0.37230   0.37230
     Eigenvalues --- 1000.000001000.000001000.000001000.000001000.00000
     Eigenvalues --- 1000.000001000.000001000.000001000.000001000.00000
     Eigenvalues --- 1000.000001000.000001000.000001000.000001000.00000
     Eigenvalues --- 1000.000001000.000001000.000001000.000001000.00000
     Eigenvalues --- 1000.000001000.000001000.000001000.000001000.00000
     Eigenvalues --- 1000.000001000.000001000.000001000.00000
 RFO step:  Lambda=-2.95156823D-01 EMin= 2.38596558D-03
 Linear search not attempted -- first point.
 Maximum step size (   0.300) exceeded in Quadratic search.
    -- Step size scaled by   0.414
 Iteration  1 RMS(Cart)=  0.26754896 RMS(Int)=  0.01269128
 Iteration  2 RMS(Cart)=  0.04160515 RMS(Int)=  0.00081319
 Iteration  3 RMS(Cart)=  0.00076905 RMS(Int)=  0.00074362
 Iteration  4 RMS(Cart)=  0.00000060 RMS(Int)=  0.00074362
 Iteration  1 RMS(Cart)=  0.00000000 RMS(Int)=  0.00000000
 ClnCor:  largest displacement from symmetrization is 5.43D-09 for atom    10.
 Variable       Old X    -DE/DX   Delta X   Delta X   Delta X     New X
                                 (Linear)    (Quad)   (Total)
    R1        2.77790  -0.00062   0.00000  -0.00054  -0.00054   2.77736
    R2        2.77790  -0.00062   0.00000  -0.00054  -0.00054   2.77736
    R3        2.77790   0.01053   0.00000   0.00911   0.00911   2.78701
    R4        3.66607   0.01807   0.00000   0.01586   0.01586   3.68193
    R5        2.02201   0.00959   0.00000   0.00594   0.00594   2.02795
    R6        2.02201   0.00959   0.00000   0.00594   0.00594   2.02795
    R7        2.91018   0.09316   0.00000   0.06638   0.06638   2.97656
    R8        2.02201   0.00959   0.00000   0.00594   0.00594   2.02795
    R9        2.02201   0.00959   0.00000   0.00594   0.00594   2.02795
   R10        3.66607   0.01807   0.00000   0.01586   0.01586   3.68193
   R11        2.77790  -0.00062   0.00000  -0.00054  -0.00054   2.77736
   R12        2.77790   0.01053   0.00000   0.00911   0.00911   2.78701
   R13        2.77790  -0.00062   0.00000  -0.00054  -0.00054   2.77736
    A1        1.91063  -0.00295   0.00000  -0.00006  -0.00031   1.91033
    A2        1.91063  -0.01010   0.00000  -0.01049  -0.01045   1.90019
    A3        1.91063   0.01529   0.00000   0.01454   0.01444   1.92507
    A4        1.91063  -0.01010   0.00000  -0.01049  -0.01045   1.90019
    A5        1.91063   0.01529   0.00000   0.01454   0.01444   1.92507
    A6        1.91063  -0.00742   0.00000  -0.00805  -0.00801   1.90262
    A7        1.91063  -0.06477   0.00000  -0.05100  -0.05121   1.85943
    A8        1.91063  -0.06477   0.00000  -0.05100  -0.05121   1.85943
    A9        1.91063   0.21853   0.00000   0.17869   0.17966   2.09029
   A10        1.91063   0.03179   0.00000   0.01556   0.01215   1.92278
   A11        1.91063  -0.06038   0.00000  -0.04612  -0.04585   1.86478
   A12        1.91063  -0.06038   0.00000  -0.04612  -0.04585   1.86478
   A13        1.91063  -0.06038   0.00000  -0.04612  -0.04585   1.86478
   A14        1.91063  -0.06038   0.00000  -0.04612  -0.04585   1.86478
   A15        1.91063   0.21853   0.00000   0.17869   0.17966   2.09029
   A16        1.91063   0.03179   0.00000   0.01556   0.01215   1.92278
   A17        1.91063  -0.06477   0.00000  -0.05100  -0.05121   1.85943
   A18        1.91063  -0.06477   0.00000  -0.05100  -0.05121   1.85943
   A19        1.91063   0.01529   0.00000   0.01454   0.01444   1.92507
   A20        1.91063  -0.00742   0.00000  -0.00805  -0.00801   1.90262
   A21        1.91063   0.01529   0.00000   0.01454   0.01444   1.92507
   A22        1.91063  -0.01010   0.00000  -0.01049  -0.01045   1.90019
   A23        1.91063  -0.00295   0.00000  -0.00006  -0.00031   1.91033
   A24        1.91063  -0.01010   0.00000  -0.01049  -0.01045   1.90019
    D1        3.14159   0.02776   0.00000   0.03057   0.02988  -3.11172
    D2       -1.04720  -0.01264   0.00000  -0.01283  -0.01198  -1.05918
    D3        1.04720   0.00756   0.00000   0.00887   0.00895   1.05614
    D4        1.04720   0.01264   0.00000   0.01283   0.01198   1.05918
    D5        3.14159  -0.02776   0.00000  -0.03057  -0.02988   3.11172
    D6       -1.04720  -0.00756   0.00000  -0.00887  -0.00895  -1.05614
    D7       -1.04720   0.02020   0.00000   0.02170   0.02093  -1.02627
    D8        1.04720  -0.02020   0.00000  -0.02170  -0.02093   1.02627
    D9        3.14159   0.00000   0.00000   0.00000   0.00000   3.14159
   D10       -2.09440  -0.01751   0.00000  -0.01871  -0.01827  -2.11267
   D11        2.09440   0.01751   0.00000   0.01871   0.01827   2.11267
   D12        0.00000   0.00000   0.00000   0.00000   0.00000   0.00000
   D13        2.09440  -0.03503   0.00000  -0.03743  -0.03654   2.05785
   D14        0.00000   0.00000   0.00000   0.00000   0.00000   0.00000
   D15       -2.09440  -0.01751   0.00000  -0.01871  -0.01827  -2.11267
   D16        0.00000   0.00000   0.00000   0.00000   0.00000   0.00000
   D17       -2.09440   0.03503   0.00000   0.03743   0.03654  -2.05785
   D18        2.09440   0.01751   0.00000   0.01871   0.01827   2.11267
   D19        1.04720   0.00756   0.00000   0.00887   0.00895   1.05614
   D20        3.14159   0.00000   0.00000   0.00000   0.00000   3.14159
   D21       -1.04720  -0.00756   0.00000  -0.00887  -0.00895  -1.05614
   D22        3.14159   0.02776   0.00000   0.03057   0.02988  -3.11172
   D23       -1.04720   0.02020   0.00000   0.02170   0.02093  -1.02627
   D24        1.04720   0.01264   0.00000   0.01283   0.01198   1.05918
   D25       -1.04720  -0.01264   0.00000  -0.01283  -0.01198  -1.05918
   D26        1.04720  -0.02020   0.00000  -0.02170  -0.02093   1.02627
   D27        3.14159  -0.02776   0.00000  -0.03057  -0.02988   3.11172
         Item               Value     Threshold  Converged?
 Maximum Force            0.218527     0.000450     NO 
 RMS     Force            0.048722     0.000300     NO 
 Maximum Displacement     0.892417     0.001800     NO 
 RMS     Displacement     0.303744     0.001200     NO 
 Predicted change in Energy=-1.115199D-01
 GradGradGradGradGradGradGradGradGradGradGradGradGradGradGradGradGradGrad

                          Input orientation:                          
 ---------------------------------------------------------------------
 Center     Atomic      Atomic             Coordinates (Angstroms)
 Number     Number       Type             X           Y           Z
 ---------------------------------------------------------------------
      1         14           0       -3.493165    4.398205    1.027898
      2          1           0       -3.502230    4.376242   -0.441627
      3          1           0       -2.807623    5.611399    1.495079
      4          1           0       -4.885654    4.420222    1.513278
      5          6           0       -2.604025    2.809599    1.722156
      6          1           0       -2.658322    2.872161    2.792098
      7          1           0       -3.167729    1.966329    1.371769
      8          6           0       -1.096706    2.534584    1.356945
      9          1           0       -1.065260    1.582727    0.862357
     10          1           0       -0.555853    2.488558    2.282686
     11         14           0       -0.134604    3.785424    0.214145
     12          1           0       -0.091916    5.115909    0.837085
     13          1           0        1.246015    3.301478    0.027623
     14          1           0       -0.786523    3.880752   -1.099621
 ---------------------------------------------------------------------
                    Distance matrix (angstroms):
                    1          2          3          4          5
     1  Si   0.000000
     2  H    1.469717   0.000000
     3  H    1.469717   2.399776   0.000000
     4  H    1.474823   2.395297   2.395297   0.000000
     5  C    1.948392   2.818350   2.818350   2.800637   0.000000
     6  H    2.477534   3.664890   3.034465   2.998813   1.073144
     7  H    2.477534   3.034465   3.664890   2.998813   1.073144
     8  C    3.053583   3.523224   3.523224   4.235114   1.575126
     9  H    3.721430   3.929749   4.434678   4.803175   2.147619
    10  H    3.721430   4.434678   3.929749   4.803175   2.147619
    11  Si   3.509647   3.481380   3.481380   4.966204   3.053583
    12  H    3.481380   3.716511   2.837874   4.890924   3.523224
    13  H    4.966204   4.890924   4.890924   6.407505   4.235114
    14  H    3.481380   2.837874   3.716511   4.890924   3.523224
                    6          7          8          9         10
     6  H    0.000000
     7  H    1.759932   0.000000
     8  C    2.147619   2.147619   0.000000
     9  H    2.815029   2.197050   1.073144   0.000000
    10  H    2.197050   2.815029   1.073144   1.759932   0.000000
    11  Si   3.721430   3.721430   1.948392   2.477534   2.477534
    12  H    3.929749   4.434678   2.818350   3.664890   3.034465
    13  H    4.803175   4.803175   2.800637   2.998813   2.998813
    14  H    4.434678   3.929749   2.818350   3.034465   3.664890
                   11         12         13         14
    11  Si   0.000000
    12  H    1.469717   0.000000
    13  H    1.474823   2.395297   0.000000
    14  H    1.469717   2.399776   2.395297   0.000000
 Stoichiometry    C2H10Si2
 Framework group  C2V[SGV(C2H2Si2),X(H8)]
 Deg. of freedom    11
 Full point group                 C2V     NOp   4
 Largest Abelian subgroup         C2V     NOp   4
 Largest concise Abelian subgroup C2V     NOp   4
                         Standard orientation:                         
 ---------------------------------------------------------------------
 Center     Atomic      Atomic             Coordinates (Angstroms)
 Number     Number       Type             X           Y           Z
 ---------------------------------------------------------------------
      1         14           0        0.000000   -1.754824   -0.532258
      2          1           0        1.199888   -1.418937   -1.311692
      3          1           0       -1.199888   -1.418937   -1.311692
      4          1           0        0.000000   -3.203752   -0.257106
      5          6           0        0.000000   -0.787563    1.159084
      6          1           0       -0.879966   -1.098525    1.688802
      7          1           0        0.879966   -1.098525    1.688802
      8          6           0        0.000000    0.787563    1.159084
      9          1           0        0.879966    1.098525    1.688802
     10          1           0       -0.879966    1.098525    1.688802
     11         14           0        0.000000    1.754824   -0.532258
     12          1           0       -1.199888    1.418937   -1.311692
     13          1           0        0.000000    3.203752   -0.257106
     14          1           0        1.199888    1.418937   -1.311692
 ---------------------------------------------------------------------
 Rotational constants (GHZ):      6.6869312      2.1993427      1.7577646
 Standard basis: 6-31G (6D, 7F)
 There are    23 symmetry adapted cartesian basis functions of A1  symmetry.
 There are     9 symmetry adapted cartesian basis functions of A2  symmetry.
 There are     9 symmetry adapted cartesian basis functions of B1  symmetry.
 There are    23 symmetry adapted cartesian basis functions of B2  symmetry.
 There are    23 symmetry adapted basis functions of A1  symmetry.
 There are     9 symmetry adapted basis functions of A2  symmetry.
 There are     9 symmetry adapted basis functions of B1  symmetry.
 There are    23 symmetry adapted basis functions of B2  symmetry.
    64 basis functions,   176 primitive gaussians,    64 cartesian basis functions
    25 alpha electrons       25 beta electrons
       nuclear repulsion energy       215.0390565244 Hartrees.
 NAtoms=   14 NActive=   14 NUniq=    5 SFac= 4.00D+00 NAtFMM=   60 NAOKFM=F Big=F
 Integral buffers will be    131072 words long.
 Raffenetti 1 integral format.
 Two-electron integral symmetry is turned on.
 One-electron integrals computed using PRISM.
 NBasis=    64 RedAO= T EigKep=  6.72D-03  NBF=    23     9     9    23
 NBsUse=    64 1.00D-06 EigRej= -1.00D+00 NBFU=    23     9     9    23
 Initial guess from the checkpoint file:  "EtOCS_no_O_RHF6-31G_SiCCSi_scan_0_180.chk"
 B after Tr=     0.000000    0.000000    0.000000
         Rot=    1.000000    0.000000    0.000000    0.000000 Ang=   0.00 deg.
 Initial guess orbital symmetries:
       Occupied  (B2) (A1) (A1) (B2) (B2) (A1) (A1) (B2) (A2) (B1)
                 (B2) (A1) (A1) (B2) (A1) (B2) (B1) (A1) (B1) (A2)
                 (A1) (A1) (B2) (A2) (B2)
       Virtual   (A1) (A1) (A1) (A1) (A1) (A1) (A1) (A1) (A1) (A1)
                 (A1) (A1) (A1) (A2) (A2) (A2) (A2) (A2) (A2) (B1)
                 (B1) (B1) (B1) (B1) (B1) (B2) (B2) (B2) (B2) (B2)
                 (B2) (B2) (B2) (B2) (B2) (B2) (B2) (B2) (B2)
 ExpMin= 7.78D-02 ExpMax= 1.61D+04 ExpMxC= 2.43D+03 IAcc=2 IRadAn=         4 AccDes= 0.00D+00
 Harris functional with IExCor=  205 and IRadAn=       4 diagonalized for initial guess.
 HarFok:  IExCor=  205 AccDes= 0.00D+00 IRadAn=         4 IDoV= 1 UseB2=F ITyADJ=14
 ICtDFT=  3500011 ScaDFX=  1.000000  1.000000  1.000000  1.000000
 FoFCou: FMM=F IPFlag=           0 FMFlag=      100000 FMFlg1=           0
         NFxFlg=           0 DoJE=T BraDBF=F KetDBF=T FulRan=T
         wScrn=  0.000000 ICntrl=     500 IOpCl=  0 I1Cent=   200000004 NGrid=           0
         NMat0=    1 NMatS0=      1 NMatT0=    0 NMatD0=    1 NMtDS0=    0 NMtDT0=    0
 Petite list used in FoFCou.
 Keep R1 ints in memory in symmetry-blocked form, NReq=3055135.
 Requested convergence on RMS density matrix=1.00D-08 within 128 cycles.
 Requested convergence on MAX density matrix=1.00D-06.
 Requested convergence on             energy=1.00D-06.
 No special actions if energy rises.
 SCF Done:  E(RHF) =  -659.235340980     A.U. after   10 cycles
            NFock= 10  Conv=0.99D-08     -V/T= 1.9992
 Calling FoFJK, ICntrl=      2127 FMM=F ISym2X=1 I1Cent= 0 IOpClX= 0 NMat=1 NMatS=1 NMatT=0.
 ***** Axes restored to original set *****
 -------------------------------------------------------------------
 Center     Atomic                   Forces (Hartrees/Bohr)
 Number     Number              X              Y              Z
 -------------------------------------------------------------------
      1       14           0.005608389   -0.013856889    0.006825925
      2        1          -0.000853954    0.001186747   -0.008813609
      3        1           0.003053149    0.008134396    0.002080189
      4        1          -0.007092582    0.000221125    0.002402757
      5        6           0.013738791    0.013885907   -0.013783373
      6        1          -0.007180298   -0.003553964    0.007549648
      7        1          -0.008445361   -0.005803511    0.004022396
      8        6          -0.012900284    0.018746294   -0.007328934
      9        1           0.006868058   -0.008597495    0.000312075
     10        1           0.008133121   -0.006347948    0.003839327
     11       14          -0.006264848   -0.011690577    0.009702717
     12        1           0.001102612    0.008490278    0.002552789
     13        1           0.007037700   -0.002356991   -0.001020899
     14        1          -0.002804492    0.001542629   -0.008341009
 -------------------------------------------------------------------
 Cartesian Forces:  Max     0.018746294 RMS     0.007867187

 GradGradGradGradGradGradGradGradGradGradGradGradGradGradGradGradGradGrad
 Berny optimization.
 Using GEDIIS/GDIIS optimizer.
 FormGI is forming the generalized inverse of G from B-inverse, IUseBI=4.
 Internal  Forces:  Max     0.008799990 RMS     0.003854095
 Search for a local minimum.
 Step number   2 out of a maximum of   74 on scan point     1 out of    19
 All quantities printed in internal units (Hartrees-Bohrs-Radians)
 Mixed Optimization -- RFO/linear search
 Update second derivatives using D2CorX and points    1    2
 DE= -4.25D-02 DEPred=-1.12D-01 R= 3.81D-01
 Trust test= 3.81D-01 RLast= 3.17D-01 DXMaxT set to 3.00D-01
 ITU=  0  0
 Use linear search instead of GDIIS.
     Eigenvalues ---    0.00239   0.00239   0.01234   0.02947   0.04703
     Eigenvalues ---    0.04879   0.05559   0.05631   0.05733   0.05733
     Eigenvalues ---    0.09295   0.09298   0.11487   0.12882   0.16000
     Eigenvalues ---    0.16000   0.16000   0.16000   0.16000   0.16030
     Eigenvalues ---    0.17593   0.17611   0.18190   0.18253   0.18253
     Eigenvalues ---    0.18253   0.18253   0.18258   0.22216   0.28105
     Eigenvalues ---    0.37150   0.37230   0.37230   0.37230   1.21302
     Eigenvalues --- 1000.000001000.000001000.000001000.000001000.00000
     Eigenvalues --- 1000.000001000.000001000.000001000.000001000.00000
     Eigenvalues --- 1000.000001000.000001000.000001000.000001000.00000
     Eigenvalues --- 1000.000001000.000001000.000001000.000001000.00000
     Eigenvalues --- 1000.000001000.000001000.000001000.000001000.00000
     Eigenvalues --- 1000.000001000.000001000.000001000.00000
 RFO step:  Lambda=-1.11961508D-02 EMin= 2.38596558D-03
 Quartic linear search produced a step of  0.20246.
 Iteration  1 RMS(Cart)=  0.07342516 RMS(Int)=  0.00181212
 Iteration  2 RMS(Cart)=  0.00253630 RMS(Int)=  0.00066830
 Iteration  3 RMS(Cart)=  0.00000237 RMS(Int)=  0.00066830
 Iteration  4 RMS(Cart)=  0.00000001 RMS(Int)=  0.00066830
 Iteration  1 RMS(Cart)=  0.00000000 RMS(Int)=  0.00000000
 ClnCor:  largest displacement from symmetrization is 4.90D-08 for atom     3.
 Variable       Old X    -DE/DX   Delta X   Delta X   Delta X     New X
                                 (Linear)    (Quad)   (Total)
    R1        2.77736   0.00880  -0.00011   0.05460   0.05449   2.83185
    R2        2.77736   0.00880  -0.00011   0.05460   0.05449   2.83185
    R3        2.78701   0.00749   0.00185   0.04494   0.04679   2.83380
    R4        3.68193  -0.00473   0.00321  -0.03267  -0.02946   3.65247
    R5        2.02795   0.00768   0.00120   0.02192   0.02312   2.05107
    R6        2.02795   0.00768   0.00120   0.02192   0.02312   2.05107
    R7        2.97656   0.00122   0.01344  -0.01482  -0.00138   2.97518
    R8        2.02795   0.00768   0.00120   0.02192   0.02312   2.05107
    R9        2.02795   0.00768   0.00120   0.02192   0.02312   2.05107
   R10        3.68193  -0.00473   0.00321  -0.03267  -0.02946   3.65247
   R11        2.77736   0.00880  -0.00011   0.05460   0.05449   2.83185
   R12        2.78701   0.00749   0.00185   0.04494   0.04679   2.83380
   R13        2.77736   0.00880  -0.00011   0.05460   0.05449   2.83185
    A1        1.91033  -0.00218  -0.00006  -0.00298  -0.00366   1.90667
    A2        1.90019  -0.00114  -0.00211  -0.01315  -0.01515   1.88504
    A3        1.92507   0.00258   0.00292   0.01973   0.02237   1.94744
    A4        1.90019  -0.00114  -0.00211  -0.01315  -0.01515   1.88504
    A5        1.92507   0.00258   0.00292   0.01973   0.02237   1.94744
    A6        1.90262  -0.00079  -0.00162  -0.01106  -0.01256   1.89006
    A7        1.85943  -0.00225  -0.01037  -0.00144  -0.01357   1.84586
    A8        1.85943  -0.00225  -0.01037  -0.00144  -0.01357   1.84586
    A9        2.09029   0.00332   0.03637   0.00013   0.03546   2.12575
   A10        1.92278  -0.00336   0.00246  -0.10908  -0.10789   1.81489
   A11        1.86478   0.00197  -0.00928   0.04812   0.03870   1.90348
   A12        1.86478   0.00197  -0.00928   0.04812   0.03870   1.90348
   A13        1.86478   0.00197  -0.00928   0.04812   0.03870   1.90348
   A14        1.86478   0.00197  -0.00928   0.04812   0.03870   1.90348
   A15        2.09029   0.00332   0.03637   0.00013   0.03546   2.12575
   A16        1.92278  -0.00336   0.00246  -0.10908  -0.10789   1.81489
   A17        1.85943  -0.00225  -0.01037  -0.00144  -0.01357   1.84586
   A18        1.85943  -0.00225  -0.01037  -0.00144  -0.01357   1.84586
   A19        1.92507   0.00258   0.00292   0.01973   0.02237   1.94744
   A20        1.90262  -0.00079  -0.00162  -0.01106  -0.01256   1.89006
   A21        1.92507   0.00258   0.00292   0.01973   0.02237   1.94744
   A22        1.90019  -0.00114  -0.00211  -0.01315  -0.01515   1.88504
   A23        1.91033  -0.00218  -0.00006  -0.00298  -0.00366   1.90667
   A24        1.90019  -0.00114  -0.00211  -0.01315  -0.01515   1.88504
    D1       -3.11172   0.00337   0.00605   0.07461   0.08015  -3.03156
    D2       -1.05918  -0.00272  -0.00243  -0.05253  -0.05406  -1.11324
    D3        1.05614   0.00032   0.00181   0.01104   0.01305   1.06919
    D4        1.05918   0.00272   0.00243   0.05253   0.05406   1.11324
    D5        3.11172  -0.00337  -0.00605  -0.07461  -0.08015   3.03156
    D6       -1.05614  -0.00032  -0.00181  -0.01104  -0.01305  -1.06919
    D7       -1.02627   0.00304   0.00424   0.06357   0.06711  -0.95916
    D8        1.02627  -0.00304  -0.00424  -0.06357  -0.06711   0.95916
    D9        3.14159   0.00000   0.00000   0.00000   0.00000  -3.14159
   D10       -2.11267  -0.00096  -0.00370  -0.03904  -0.04326  -2.15592
   D11        2.11267   0.00096   0.00370   0.03904   0.04326   2.15592
   D12        0.00000   0.00000   0.00000   0.00000   0.00000   0.00000
   D13        2.05785  -0.00191  -0.00740  -0.07808  -0.08651   1.97134
   D14        0.00000   0.00000   0.00000   0.00000   0.00000   0.00000
   D15       -2.11267  -0.00096  -0.00370  -0.03904  -0.04326  -2.15592
   D16        0.00000   0.00000   0.00000   0.00000   0.00000   0.00000
   D17       -2.05785   0.00191   0.00740   0.07808   0.08651  -1.97134
   D18        2.11267   0.00096   0.00370   0.03904   0.04326   2.15592
   D19        1.05614   0.00032   0.00181   0.01104   0.01305   1.06919
   D20        3.14159   0.00000   0.00000   0.00000   0.00000   3.14159
   D21       -1.05614  -0.00032  -0.00181  -0.01104  -0.01305  -1.06919
   D22       -3.11172   0.00337   0.00605   0.07461   0.08015  -3.03156
   D23       -1.02627   0.00304   0.00424   0.06357   0.06711  -0.95916
   D24        1.05918   0.00272   0.00243   0.05253   0.05406   1.11324
   D25       -1.05918  -0.00272  -0.00243  -0.05253  -0.05406  -1.11324
   D26        1.02627  -0.00304  -0.00424  -0.06357  -0.06711   0.95916
   D27        3.11172  -0.00337  -0.00605  -0.07461  -0.08015   3.03156
         Item               Value     Threshold  Converged?
 Maximum Force            0.008800     0.000450     NO 
 RMS     Force            0.003885     0.000300     NO 
 Maximum Displacement     0.207808     0.001800     NO 
 RMS     Displacement     0.071725     0.001200     NO 
 Predicted change in Energy=-1.024676D-03
 GradGradGradGradGradGradGradGradGradGradGradGradGradGradGradGradGradGrad

                          Input orientation:                          
 ---------------------------------------------------------------------
 Center     Atomic      Atomic             Coordinates (Angstroms)
 Number     Number       Type             X           Y           Z
 ---------------------------------------------------------------------
      1         14           0       -3.542006    4.397336    1.045969
      2          1           0       -3.610883    4.409304   -0.450950
      3          1           0       -2.903565    5.667063    1.521195
      4          1           0       -4.944912    4.357984    1.574224
      5          6           0       -2.602878    2.840600    1.701974
      6          1           0       -2.706761    2.867060    2.782047
      7          1           0       -3.201836    1.986713    1.401679
      8          6           0       -1.096257    2.565712    1.336931
      9          1           0       -1.016814    1.588049    0.872265
     10          1           0       -0.521740    2.468395    2.252634
     11         14           0       -0.086263    3.766824    0.208670
     12          1           0        0.018051    5.134005    0.813310
     13          1           0        1.301537    3.218299    0.060758
     14          1           0       -0.689266    3.876246   -1.158835
 ---------------------------------------------------------------------
                    Distance matrix (angstroms):
                    1          2          3          4          5
     1  Si   0.000000
     2  H    1.498551   0.000000
     3  H    1.498551   2.443688   0.000000
     4  H    1.499583   2.425613   2.425613   0.000000
     5  C    1.932804   2.848155   2.848155   2.793547   0.000000
     6  H    2.460355   3.694350   3.077093   2.948052   1.085380
     7  H    2.460355   3.077093   3.694350   2.948052   1.085380
     8  C    3.069397   3.594259   3.594259   4.252140   1.574397
     9  H    3.781383   4.054574   4.540847   4.857493   2.184696
    10  H    3.781383   4.540847   4.054574   4.857493   2.184696
    11  Si   3.611201   3.642913   3.642913   5.081405   3.069397
    12  H    3.642913   3.910589   3.053047   5.080571   3.594259
    13  H    5.081405   5.080571   5.080571   6.527449   4.252140
    14  H    3.642913   3.053047   3.910589   5.080571   3.594259
                    6          7          8          9         10
     6  H    0.000000
     7  H    1.710417   0.000000
     8  C    2.184696   2.184696   0.000000
     9  H    2.852903   2.283316   1.085380   0.000000
    10  H    2.283316   2.852903   1.085380   1.710417   0.000000
    11  Si   3.781383   3.781383   1.932804   2.460355   2.460355
    12  H    4.054574   4.540847   2.848155   3.694350   3.077093
    13  H    4.857493   4.857493   2.793547   2.948052   2.948052
    14  H    4.540847   4.054574   2.848155   3.077093   3.694350
                   11         12         13         14
    11  Si   0.000000
    12  H    1.498551   0.000000
    13  H    1.499583   2.425613   0.000000
    14  H    1.498551   2.443688   2.425613   0.000000
 Stoichiometry    C2H10Si2
 Framework group  C2V[SGV(C2H2Si2),X(H8)]
 Deg. of freedom    11
 Full point group                 C2V     NOp   4
 Largest Abelian subgroup         C2V     NOp   4
 Largest concise Abelian subgroup C2V     NOp   4
                         Standard orientation:                         
 ---------------------------------------------------------------------
 Center     Atomic      Atomic             Coordinates (Angstroms)
 Number     Number       Type             X           Y           Z
 ---------------------------------------------------------------------
      1         14           0        0.000000   -1.805600   -0.519290
      2          1           0        1.221844   -1.526523   -1.340793
      3          1           0       -1.221844   -1.526523   -1.340793
      4          1           0        0.000000   -3.263724   -0.169116
      5          6           0        0.000000   -0.787198    1.123448
      6          1           0       -0.855208   -1.141658    1.690041
      7          1           0        0.855208   -1.141658    1.690041
      8          6           0        0.000000    0.787198    1.123448
      9          1           0        0.855208    1.141658    1.690041
     10          1           0       -0.855208    1.141658    1.690041
     11         14           0        0.000000    1.805600   -0.519290
     12          1           0       -1.221844    1.526523   -1.340793
     13          1           0        0.000000    3.263724   -0.169116
     14          1           0        1.221844    1.526523   -1.340793
 ---------------------------------------------------------------------
 Rotational constants (GHZ):      6.9084130      2.0850832      1.6981881
 Standard basis: 6-31G (6D, 7F)
 There are    23 symmetry adapted cartesian basis functions of A1  symmetry.
 There are     9 symmetry adapted cartesian basis functions of A2  symmetry.
 There are     9 symmetry adapted cartesian basis functions of B1  symmetry.
 There are    23 symmetry adapted cartesian basis functions of B2  symmetry.
 There are    23 symmetry adapted basis functions of A1  symmetry.
 There are     9 symmetry adapted basis functions of A2  symmetry.
 There are     9 symmetry adapted basis functions of B1  symmetry.
 There are    23 symmetry adapted basis functions of B2  symmetry.
    64 basis functions,   176 primitive gaussians,    64 cartesian basis functions
    25 alpha electrons       25 beta electrons
       nuclear repulsion energy       212.9198731525 Hartrees.
 NAtoms=   14 NActive=   14 NUniq=    5 SFac= 4.00D+00 NAtFMM=   60 NAOKFM=F Big=F
 Integral buffers will be    131072 words long.
 Raffenetti 1 integral format.
 Two-electron integral symmetry is turned on.
 One-electron integrals computed using PRISM.
 NBasis=    64 RedAO= T EigKep=  7.75D-03  NBF=    23     9     9    23
 NBsUse=    64 1.00D-06 EigRej= -1.00D+00 NBFU=    23     9     9    23
 Initial guess from the checkpoint file:  "EtOCS_no_O_RHF6-31G_SiCCSi_scan_0_180.chk"
 B after Tr=     0.000000    0.000000    0.000000
         Rot=    1.000000    0.000000    0.000000    0.000000 Ang=   0.00 deg.
 Initial guess orbital symmetries:
       Occupied  (B2) (A1) (A1) (B2) (B2) (A1) (B2) (A1) (A2) (B1)
                 (B2) (A1) (A1) (B2) (A1) (B2) (B1) (A1) (A2) (B1)
                 (A1) (B2) (A1) (A2) (B2)
       Virtual   (A1) (A1) (A1) (A1) (A1) (A1) (A1) (A1) (A1) (A1)
                 (A1) (A1) (A1) (A2) (A2) (A2) (A2) (A2) (A2) (B1)
                 (B1) (B1) (B1) (B1) (B1) (B2) (B2) (B2) (B2) (B2)
                 (B2) (B2) (B2) (B2) (B2) (B2) (B2) (B2) (B2)
 ExpMin= 7.78D-02 ExpMax= 1.61D+04 ExpMxC= 2.43D+03 IAcc=2 IRadAn=         4 AccDes= 0.00D+00
 Harris functional with IExCor=  205 and IRadAn=       4 diagonalized for initial guess.
 HarFok:  IExCor=  205 AccDes= 0.00D+00 IRadAn=         4 IDoV= 1 UseB2=F ITyADJ=14
 ICtDFT=  3500011 ScaDFX=  1.000000  1.000000  1.000000  1.000000
 FoFCou: FMM=F IPFlag=           0 FMFlag=      100000 FMFlg1=           0
         NFxFlg=           0 DoJE=T BraDBF=F KetDBF=T FulRan=T
         wScrn=  0.000000 ICntrl=     500 IOpCl=  0 I1Cent=   200000004 NGrid=           0
         NMat0=    1 NMatS0=      1 NMatT0=    0 NMatD0=    1 NMtDS0=    0 NMtDT0=    0
 Petite list used in FoFCou.
 Keep R1 ints in memory in symmetry-blocked form, NReq=3054787.
 Requested convergence on RMS density matrix=1.00D-08 within 128 cycles.
 Requested convergence on MAX density matrix=1.00D-06.
 Requested convergence on             energy=1.00D-06.
 No special actions if energy rises.
 SCF Done:  E(RHF) =  -659.238543239     A.U. after    9 cycles
            NFock=  9  Conv=0.46D-08     -V/T= 1.9996
 Calling FoFJK, ICntrl=      2127 FMM=F ISym2X=1 I1Cent= 0 IOpClX= 0 NMat=1 NMatS=1 NMatT=0.
 ***** Axes restored to original set *****
 -------------------------------------------------------------------
 Center     Atomic                   Forces (Hartrees/Bohr)
 Number     Number              X              Y              Z
 -------------------------------------------------------------------
      1       14           0.000530159   -0.000262203   -0.000022920
      2        1           0.000536681    0.000746752    0.001772831
      3        1          -0.000603989   -0.001281597   -0.001407587
      4        1           0.001613259   -0.000318039   -0.000375768
      5        6           0.005913754   -0.001739116   -0.001011849
      6        1           0.001973669    0.001670194    0.001135434
      7        1           0.000614860   -0.000746054   -0.002653202
      8        6          -0.005947521    0.000425013    0.001862045
      9        1          -0.001937955   -0.000280284   -0.002034674
     10        1          -0.000579146    0.002135963    0.001753961
     11       14          -0.000538623   -0.000067201    0.000236037
     12        1          -0.000550674   -0.001291324   -0.001420505
     13        1          -0.001614471    0.000270871    0.000406285
     14        1           0.000589995    0.000737025    0.001759913
 -------------------------------------------------------------------
 Cartesian Forces:  Max     0.005947521 RMS     0.001774711

 GradGradGradGradGradGradGradGradGradGradGradGradGradGradGradGradGradGrad
 Berny optimization.
 Using GEDIIS/GDIIS optimizer.
 FormGI is forming the generalized inverse of G from B-inverse, IUseBI=4.
 Internal  Forces:  Max     0.011054269 RMS     0.001705927
 Search for a local minimum.
 Step number   3 out of a maximum of   74 on scan point     1 out of    19
 All quantities printed in internal units (Hartrees-Bohrs-Radians)
 Mixed Optimization -- RFO/linear search
 Update second derivatives using D2CorX and points    1    2    3
 DE= -3.20D-03 DEPred=-1.02D-03 R= 3.13D+00
 TightC=F SS=  1.41D+00  RLast= 3.67D-01 DXNew= 5.0454D-01 1.1000D+00
 Trust test= 3.13D+00 RLast= 3.67D-01 DXMaxT set to 5.05D-01
 ITU=  1  0  0
 Use linear search instead of GDIIS.
     Eigenvalues ---    0.00239   0.00239   0.01084   0.02589   0.04404
     Eigenvalues ---    0.04511   0.05295   0.05304   0.05746   0.05746
     Eigenvalues ---    0.09847   0.09888   0.11974   0.13244   0.15241
     Eigenvalues ---    0.16000   0.16000   0.16000   0.16000   0.16016
     Eigenvalues ---    0.17271   0.17593   0.18253   0.18253   0.18253
     Eigenvalues ---    0.18253   0.18257   0.18947   0.21997   0.29700
     Eigenvalues ---    0.36306   0.37230   0.37230   0.37230   0.83673
     Eigenvalues --- 1000.000001000.000001000.000001000.000001000.00000
     Eigenvalues --- 1000.000001000.000001000.000001000.000001000.00000
     Eigenvalues --- 1000.000001000.000001000.000001000.000001000.00000
     Eigenvalues --- 1000.000001000.000001000.000001000.000001000.00000
     Eigenvalues --- 1000.000001000.000001000.000001000.000001000.00000
     Eigenvalues --- 1000.000001000.000001000.000001000.00000
 RFO step:  Lambda=-4.37594713D-04 EMin= 2.38596558D-03
 Quartic linear search produced a step of -0.18363.
 Iteration  1 RMS(Cart)=  0.01396058 RMS(Int)=  0.00010981
 Iteration  2 RMS(Cart)=  0.00006207 RMS(Int)=  0.00009898
 Iteration  3 RMS(Cart)=  0.00000001 RMS(Int)=  0.00009898
 Iteration  1 RMS(Cart)=  0.00000000 RMS(Int)=  0.00000000
 ClnCor:  largest displacement from symmetrization is 1.59D-08 for atom    13.
 Variable       Old X    -DE/DX   Delta X   Delta X   Delta X     New X
                                 (Linear)    (Quad)   (Total)
    R1        2.83185  -0.00179  -0.01001   0.00186  -0.00814   2.82371
    R2        2.83185  -0.00179  -0.01001   0.00186  -0.00814   2.82371
    R3        2.83380  -0.00163  -0.00859   0.00165  -0.00694   2.82686
    R4        3.65247  -0.00190   0.00541  -0.01323  -0.00782   3.64465
    R5        2.05107   0.00098  -0.00425   0.00659   0.00235   2.05342
    R6        2.05107   0.00098  -0.00425   0.00659   0.00235   2.05342
    R7        2.97518  -0.01105   0.00025  -0.02760  -0.02735   2.94783
    R8        2.05107   0.00098  -0.00425   0.00659   0.00235   2.05342
    R9        2.05107   0.00098  -0.00425   0.00659   0.00235   2.05342
   R10        3.65247  -0.00190   0.00541  -0.01323  -0.00782   3.64465
   R11        2.83185  -0.00179  -0.01001   0.00186  -0.00814   2.82371
   R12        2.83380  -0.00163  -0.00859   0.00165  -0.00694   2.82686
   R13        2.83185  -0.00179  -0.01001   0.00186  -0.00814   2.82371
    A1        1.90667  -0.00121   0.00067  -0.01041  -0.00963   1.89704
    A2        1.88504   0.00033   0.00278   0.00034   0.00310   1.88814
    A3        1.94744   0.00070  -0.00411   0.00722   0.00317   1.95061
    A4        1.88504   0.00033   0.00278   0.00034   0.00310   1.88814
    A5        1.94744   0.00070  -0.00411   0.00722   0.00317   1.95061
    A6        1.89006  -0.00085   0.00231  -0.00502  -0.00274   1.88732
    A7        1.84586   0.00087   0.00249  -0.00250   0.00026   1.84612
    A8        1.84586   0.00087   0.00249  -0.00250   0.00026   1.84612
    A9        2.12575  -0.00183  -0.00651   0.00441  -0.00192   2.12383
   A10        1.81489   0.00112   0.01981   0.00453   0.02444   1.83934
   A11        1.90348  -0.00027  -0.00711  -0.00182  -0.00890   1.89457
   A12        1.90348  -0.00027  -0.00711  -0.00182  -0.00890   1.89457
   A13        1.90348  -0.00027  -0.00711  -0.00182  -0.00890   1.89457
   A14        1.90348  -0.00027  -0.00711  -0.00182  -0.00890   1.89457
   A15        2.12575  -0.00183  -0.00651   0.00441  -0.00192   2.12383
   A16        1.81489   0.00112   0.01981   0.00453   0.02444   1.83934
   A17        1.84586   0.00087   0.00249  -0.00250   0.00026   1.84612
   A18        1.84586   0.00087   0.00249  -0.00250   0.00026   1.84612
   A19        1.94744   0.00070  -0.00411   0.00722   0.00317   1.95061
   A20        1.89006  -0.00085   0.00231  -0.00502  -0.00274   1.88732
   A21        1.94744   0.00070  -0.00411   0.00722   0.00317   1.95061
   A22        1.88504   0.00033   0.00278   0.00034   0.00310   1.88814
   A23        1.90667  -0.00121   0.00067  -0.01041  -0.00963   1.89704
   A24        1.88504   0.00033   0.00278   0.00034   0.00310   1.88814
    D1       -3.03156  -0.00126  -0.01472  -0.00304  -0.01770  -3.04927
    D2       -1.11324   0.00069   0.00993  -0.00001   0.00980  -1.10344
    D3        1.06919  -0.00028  -0.00240  -0.00153  -0.00395   1.06524
    D4        1.11324  -0.00069  -0.00993   0.00001  -0.00980   1.10344
    D5        3.03156   0.00126   0.01472   0.00304   0.01770   3.04927
    D6       -1.06919   0.00028   0.00240   0.00153   0.00395  -1.06524
    D7       -0.95916  -0.00097  -0.01232  -0.00152  -0.01375  -0.97291
    D8        0.95916   0.00097   0.01232   0.00152   0.01375   0.97291
    D9        3.14159   0.00000   0.00000   0.00000   0.00000   3.14159
   D10       -2.15592   0.00052   0.00794   0.00173   0.00976  -2.14616
   D11        2.15592  -0.00052  -0.00794  -0.00173  -0.00976   2.14616
   D12        0.00000   0.00000   0.00000   0.00000   0.00000   0.00000
   D13        1.97134   0.00104   0.01589   0.00345   0.01952   1.99086
   D14        0.00000   0.00000   0.00000   0.00000   0.00000   0.00000
   D15       -2.15592   0.00052   0.00794   0.00173   0.00976  -2.14616
   D16        0.00000   0.00000   0.00000   0.00000   0.00000   0.00000
   D17       -1.97134  -0.00104  -0.01589  -0.00345  -0.01952  -1.99086
   D18        2.15592  -0.00052  -0.00794  -0.00173  -0.00976   2.14616
   D19        1.06919  -0.00028  -0.00240  -0.00153  -0.00395   1.06524
   D20        3.14159   0.00000   0.00000   0.00000   0.00000   3.14159
   D21       -1.06919   0.00028   0.00240   0.00153   0.00395  -1.06524
   D22       -3.03156  -0.00126  -0.01472  -0.00304  -0.01770  -3.04927
   D23       -0.95916  -0.00097  -0.01232  -0.00152  -0.01375  -0.97291
   D24        1.11324  -0.00069  -0.00993   0.00001  -0.00980   1.10344
   D25       -1.11324   0.00069   0.00993  -0.00001   0.00980  -1.10344
   D26        0.95916   0.00097   0.01232   0.00152   0.01375   0.97291
   D27        3.03156   0.00126   0.01472   0.00304   0.01770   3.04927
         Item               Value     Threshold  Converged?
 Maximum Force            0.011054     0.000450     NO 
 RMS     Force            0.001719     0.000300     NO 
 Maximum Displacement     0.034064     0.001800     NO 
 RMS     Displacement     0.013990     0.001200     NO 
 Predicted change in Energy=-3.811138D-04
 GradGradGradGradGradGradGradGradGradGradGradGradGradGradGradGradGradGrad

                          Input orientation:                          
 ---------------------------------------------------------------------
 Center     Atomic      Atomic             Coordinates (Angstroms)
 Number     Number       Type             X           Y           Z
 ---------------------------------------------------------------------
      1         14           0       -3.530050    4.392467    1.044786
      2          1           0       -3.594880    4.410530   -0.447939
      3          1           0       -2.892016    5.660370    1.511789
      4          1           0       -4.929274    4.352165    1.572326
      5          6           0       -2.595987    2.837978    1.701175
      6          1           0       -2.688736    2.872659    2.783275
      7          1           0       -3.189073    1.982955    1.388234
      8          6           0       -1.103217    2.565617    1.339488
      9          1           0       -1.034649    1.589873    0.866234
     10          1           0       -0.534312    2.479578    2.261275
     11         14           0       -0.098357    3.766343    0.213314
     12          1           0        0.002038    5.132340    0.810582
     13          1           0        1.285747    3.218214    0.066476
     14          1           0       -0.700826    3.882501   -1.149145
 ---------------------------------------------------------------------
                    Distance matrix (angstroms):
                    1          2          3          4          5
     1  Si   0.000000
     2  H    1.494242   0.000000
     3  H    1.494242   2.428302   0.000000
     4  H    1.495911   2.421876   2.421876   0.000000
     5  C    1.928667   2.844187   2.844187   2.784527   0.000000
     6  H    2.457635   3.691462   3.070722   2.945394   1.086622
     7  H    2.457635   3.070722   3.691462   2.945394   1.086622
     8  C    3.051844   3.578685   3.578685   4.229028   1.559924
     9  H    3.756785   4.029633   4.520564   4.826688   2.166256
    10  H    3.756785   4.520564   4.029633   4.826688   2.166256
    11  Si   3.586070   3.616339   3.616339   5.052510   3.051844
    12  H    3.616339   3.878493   3.024245   5.050422   3.578685
    13  H    5.052510   5.050422   5.050422   6.494606   4.229028
    14  H    3.616339   3.024245   3.878493   5.050422   3.578685
                    6          7          8          9         10
     6  H    0.000000
     7  H    1.728598   0.000000
     8  C    2.166256   2.166256   0.000000
     9  H    2.838413   2.251341   1.086622   0.000000
    10  H    2.251341   2.838413   1.086622   1.728598   0.000000
    11  Si   3.756785   3.756785   1.928667   2.457635   2.457635
    12  H    4.029633   4.520564   2.844187   3.691462   3.070722
    13  H    4.826688   4.826688   2.784527   2.945394   2.945394
    14  H    4.520564   4.029633   2.844187   3.070722   3.691462
                   11         12         13         14
    11  Si   0.000000
    12  H    1.494242   0.000000
    13  H    1.495911   2.421876   0.000000
    14  H    1.494242   2.428302   2.421876   0.000000
 Stoichiometry    C2H10Si2
 Framework group  C2V[SGV(C2H2Si2),X(H8)]
 Deg. of freedom    11
 Full point group                 C2V     NOp   4
 Largest Abelian subgroup         C2V     NOp   4
 Largest concise Abelian subgroup C2V     NOp   4
                         Standard orientation:                         
 ---------------------------------------------------------------------
 Center     Atomic      Atomic             Coordinates (Angstroms)
 Number     Number       Type             X           Y           Z
 ---------------------------------------------------------------------
      1         14           0        0.000000   -1.793035   -0.518084
      2          1           0        1.214151   -1.512122   -1.342513
      3          1           0       -1.214151   -1.512122   -1.342513
      4          1           0        0.000000   -3.247303   -0.167580
      5          6           0        0.000000   -0.779962    1.123085
      6          1           0       -0.864299   -1.125671    1.683638
      7          1           0        0.864299   -1.125671    1.683638
      8          6           0        0.000000    0.779962    1.123085
      9          1           0        0.864299    1.125671    1.683638
     10          1           0       -0.864299    1.125671    1.683638
     11         14           0        0.000000    1.793035   -0.518084
     12          1           0       -1.214151    1.512122   -1.342513
     13          1           0        0.000000    3.247303   -0.167580
     14          1           0        1.214151    1.512122   -1.342513
 ---------------------------------------------------------------------
 Rotational constants (GHZ):      6.9245960      2.1143320      1.7183911
 Standard basis: 6-31G (6D, 7F)
 There are    23 symmetry adapted cartesian basis functions of A1  symmetry.
 There are     9 symmetry adapted cartesian basis functions of A2  symmetry.
 There are     9 symmetry adapted cartesian basis functions of B1  symmetry.
 There are    23 symmetry adapted cartesian basis functions of B2  symmetry.
 There are    23 symmetry adapted basis functions of A1  symmetry.
 There are     9 symmetry adapted basis functions of A2  symmetry.
 There are     9 symmetry adapted basis functions of B1  symmetry.
 There are    23 symmetry adapted basis functions of B2  symmetry.
    64 basis functions,   176 primitive gaussians,    64 cartesian basis functions
    25 alpha electrons       25 beta electrons
       nuclear repulsion energy       213.8194326671 Hartrees.
 NAtoms=   14 NActive=   14 NUniq=    5 SFac= 4.00D+00 NAtFMM=   60 NAOKFM=F Big=F
 Integral buffers will be    131072 words long.
 Raffenetti 1 integral format.
 Two-electron integral symmetry is turned on.
 One-electron integrals computed using PRISM.
 NBasis=    64 RedAO= T EigKep=  7.50D-03  NBF=    23     9     9    23
 NBsUse=    64 1.00D-06 EigRej= -1.00D+00 NBFU=    23     9     9    23
 Initial guess from the checkpoint file:  "EtOCS_no_O_RHF6-31G_SiCCSi_scan_0_180.chk"
 B after Tr=     0.000000    0.000000    0.000000
         Rot=    1.000000    0.000000    0.000000    0.000000 Ang=   0.00 deg.
 Initial guess orbital symmetries:
       Occupied  (B2) (A1) (A1) (B2) (B2) (A1) (B2) (A1) (A2) (B1)
                 (B2) (A1) (A1) (B2) (A1) (B2) (B1) (A1) (A2) (A1)
                 (B1) (B2) (A1) (A2) (B2)
       Virtual   (A1) (A1) (A1) (A1) (A1) (A1) (A1) (A1) (A1) (A1)
                 (A1) (A1) (A1) (A2) (A2) (A2) (A2) (A2) (A2) (B1)
                 (B1) (B1) (B1) (B1) (B1) (B2) (B2) (B2) (B2) (B2)
                 (B2) (B2) (B2) (B2) (B2) (B2) (B2) (B2) (B2)
 ExpMin= 7.78D-02 ExpMax= 1.61D+04 ExpMxC= 2.43D+03 IAcc=2 IRadAn=         4 AccDes= 0.00D+00
 Harris functional with IExCor=  205 and IRadAn=       4 diagonalized for initial guess.
 HarFok:  IExCor=  205 AccDes= 0.00D+00 IRadAn=         4 IDoV= 1 UseB2=F ITyADJ=14
 ICtDFT=  3500011 ScaDFX=  1.000000  1.000000  1.000000  1.000000
 FoFCou: FMM=F IPFlag=           0 FMFlag=      100000 FMFlg1=           0
         NFxFlg=           0 DoJE=T BraDBF=F KetDBF=T FulRan=T
         wScrn=  0.000000 ICntrl=     500 IOpCl=  0 I1Cent=   200000004 NGrid=           0
         NMat0=    1 NMatS0=      1 NMatT0=    0 NMatD0=    1 NMtDS0=    0 NMtDT0=    0
 Petite list used in FoFCou.
 Keep R1 ints in memory in symmetry-blocked form, NReq=3054933.
 Requested convergence on RMS density matrix=1.00D-08 within 128 cycles.
 Requested convergence on MAX density matrix=1.00D-06.
 Requested convergence on             energy=1.00D-06.
 No special actions if energy rises.
 SCF Done:  E(RHF) =  -659.238937785     A.U. after    8 cycles
            NFock=  8  Conv=0.56D-08     -V/T= 1.9995
 Calling FoFJK, ICntrl=      2127 FMM=F ISym2X=1 I1Cent= 0 IOpClX= 0 NMat=1 NMatS=1 NMatT=0.
 ***** Axes restored to original set *****
 -------------------------------------------------------------------
 Center     Atomic                   Forces (Hartrees/Bohr)
 Number     Number              X              Y              Z
 -------------------------------------------------------------------
      1       14          -0.000193830   -0.000030833    0.000089182
      2        1           0.000220264    0.000282128    0.000192801
      3        1           0.000009221   -0.000093150   -0.000395629
      4        1           0.000325071   -0.000084790   -0.000062512
      5        6           0.001537686   -0.000837017   -0.000017680
      6        1          -0.000599643    0.000094424   -0.000333428
      7        1          -0.000371528    0.000500061    0.000302604
      8        6          -0.001566150   -0.000270712    0.000734355
      9        1           0.000610316    0.000320920    0.000064710
     10        1           0.000382201   -0.000084717   -0.000571322
     11       14           0.000190444   -0.000100945   -0.000003925
     12        1          -0.000214360   -0.000052357   -0.000341457
     13        1          -0.000326375    0.000034069    0.000095328
     14        1          -0.000003317    0.000322921    0.000246973
 -------------------------------------------------------------------
 Cartesian Forces:  Max     0.001566150 RMS     0.000463862

 GradGradGradGradGradGradGradGradGradGradGradGradGradGradGradGradGradGrad
 Berny optimization.
 Using GEDIIS/GDIIS optimizer.
 FormGI is forming the generalized inverse of G from B-inverse, IUseBI=4.
 Internal  Forces:  Max     0.001485150 RMS     0.000415708
 Search for a local minimum.
 Step number   4 out of a maximum of   74 on scan point     1 out of    19
 All quantities printed in internal units (Hartrees-Bohrs-Radians)
 Mixed Optimization -- En-DIIS/RFO-DIIS
 Update second derivatives using D2CorX and points    1    2    3    4
 DE= -3.95D-04 DEPred=-3.81D-04 R= 1.04D+00
 TightC=F SS=  1.41D+00  RLast= 8.16D-02 DXNew= 8.4853D-01 2.4468D-01
 Trust test= 1.04D+00 RLast= 8.16D-02 DXMaxT set to 5.05D-01
 ITU=  1  1  0  0
 Use linear search instead of GDIIS.
     Eigenvalues ---    0.00239   0.00239   0.01106   0.02641   0.04381
     Eigenvalues ---    0.04548   0.05255   0.05291   0.05734   0.05734
     Eigenvalues ---    0.09811   0.09919   0.11911   0.13199   0.15004
     Eigenvalues ---    0.15995   0.16000   0.16000   0.16000   0.16000
     Eigenvalues ---    0.17593   0.17762   0.18232   0.18253   0.18253
     Eigenvalues ---    0.18253   0.18253   0.18432   0.22052   0.29870
     Eigenvalues ---    0.36790   0.37230   0.37230   0.37230   0.92166
     Eigenvalues --- 1000.000001000.000001000.000001000.000001000.00000
     Eigenvalues --- 1000.000001000.000001000.000001000.000001000.00000
     Eigenvalues --- 1000.000001000.000001000.000001000.000001000.00000
     Eigenvalues --- 1000.000001000.000001000.000001000.000001000.00000
     Eigenvalues --- 1000.000001000.000001000.000001000.000001000.00000
     Eigenvalues --- 1000.000001000.000001000.000001000.00000
 RFO step:  Lambda=-4.26289252D-05 EMin= 2.38596558D-03
 Quartic linear search produced a step of  0.01872.
 Iteration  1 RMS(Cart)=  0.00364182 RMS(Int)=  0.00000702
 Iteration  2 RMS(Cart)=  0.00000750 RMS(Int)=  0.00000365
 Iteration  3 RMS(Cart)=  0.00000000 RMS(Int)=  0.00000365
 Iteration  1 RMS(Cart)=  0.00000000 RMS(Int)=  0.00000000
 ClnCor:  largest displacement from symmetrization is 8.42D-09 for atom    10.
 Variable       Old X    -DE/DX   Delta X   Delta X   Delta X     New X
                                 (Linear)    (Quad)   (Total)
    R1        2.82371  -0.00020  -0.00015  -0.00217  -0.00233   2.82138
    R2        2.82371  -0.00020  -0.00015  -0.00217  -0.00233   2.82138
    R3        2.82686  -0.00032  -0.00013  -0.00236  -0.00249   2.82437
    R4        3.64465  -0.00006  -0.00015   0.00027   0.00012   3.64477
    R5        2.05342  -0.00028   0.00004  -0.00080  -0.00076   2.05266
    R6        2.05342  -0.00028   0.00004  -0.00080  -0.00076   2.05266
    R7        2.94783  -0.00097  -0.00051  -0.00317  -0.00368   2.94415
    R8        2.05342  -0.00028   0.00004  -0.00080  -0.00076   2.05266
    R9        2.05342  -0.00028   0.00004  -0.00080  -0.00076   2.05266
   R10        3.64465  -0.00006  -0.00015   0.00027   0.00012   3.64477
[...]
           A12        109.68719 109.83382 109.93578 109.99969 110.04675
           A13        111.74633 112.02029 112.06335 111.88573 111.56565
           A14        109.68719 109.83382 109.93578 109.99969 110.04675
           A15        113.91108 113.59606 113.52567 113.49457 113.42846
           A16        105.55255 105.48540 105.48773 105.58705 105.76817
           A17        108.93044 108.35499 107.54985 106.82720 106.42305
           A18        106.55525 107.12339 107.87976 108.67713 109.26655
           A19        109.47968 109.74184 110.11616 110.48825 110.74119
           A20        110.71568 110.93401 111.01039 111.05282 111.07346
           A21        111.20546 110.64123 110.14065 109.71558 109.46087
           A22        108.62985 108.67205 108.69693 108.67540 108.64106
           A23        108.14381 108.14209 108.15671 108.18431 108.21084
           A24        108.59157 108.63849 108.65068 108.65417 108.64109
           D1        -172.59870-172.88741-174.30626-176.11290-177.70615
           D2         -59.16648 -59.52345 -60.95886 -62.62462 -63.93149
           D3          61.91435  61.94289  61.12713  60.10037  59.24477
           D4          67.95962  67.85745  66.49724  64.69134  63.06947
           D5        -178.60816-178.77859 179.84464 178.17962 176.84413
           D6         -57.52734 -57.31225 -58.06937 -59.09539 -59.97962
           D7         -52.86030 -52.79027 -53.88361 -55.44209 -56.89499
           D8          60.57192  60.57368  59.46378  58.04619  56.87967
           D9        -178.34726-177.95997-178.45023-179.22882-179.94407
           D10        -23.98138 -13.18462  -2.09400   9.01635  19.82860
           D11       -140.68065-130.05927-119.06289-108.00758 -97.25338
           D12         99.99987 109.99986 119.99990 130.00001 140.00015
           D13       -147.96263-136.36910-124.18791-111.96730-100.34294
           D14         95.33809 106.75626 118.84320 131.00877 142.57508
           D15        -23.98138 -13.18462  -2.09401   9.01635  19.82861
           D16         95.33809 106.75626 118.84320 131.00877 142.57508
           D17        -21.36118 -10.11839   1.87431  13.98485  25.49310
           D18       -140.68065-130.05926-119.06290-108.00757 -97.25337
           D19         61.91434  61.94288  61.12715  60.10035  59.24479
           D20       -178.34726-177.95999-178.45020-179.22883-179.94406
           D21        -57.52734 -57.31226 -58.06935 -59.09540 -59.97960
           D22       -172.59870-172.88742-174.30624-176.11292-177.70612
           D23        -52.86030 -52.79029 -53.88359 -55.44210 -56.89496
           D24         67.95961  67.85744  66.49727  64.69133  63.06950
           D25        -59.16648 -59.52347 -60.95884 -62.62464 -63.93146
           D26         60.57192  60.57366  59.46381  58.04617  56.87969
           D27       -178.60816-178.77861 179.84466 178.17961 176.84416
                          16        17        18        19
     Eigenvalues --  -659.24742-659.24855-659.24935-659.24964
           R1           1.49567   1.49573   1.49570   1.49566
           R2           1.49542   1.49552   1.49557   1.49565
           R3           1.49554   1.49562   1.49566   1.49565
           R4           1.92447   1.92494   1.92532   1.92537
           R5           1.08764   1.08753   1.08718   1.08669
           R6           1.08519   1.08561   1.08612   1.08670
           R7           1.54823   1.54565   1.54394   1.54334
           R8           1.08764   1.08753   1.08718   1.08669
           R9           1.08519   1.08561   1.08612   1.08670
           R10          1.92447   1.92494   1.92532   1.92537
           R11          1.49567   1.49573   1.49570   1.49566
           R12          1.49554   1.49562   1.49566   1.49565
           R13          1.49542   1.49552   1.49557   1.49565
           A1         108.25621 108.27742 108.29402 108.30020
           A2         108.59833 108.57273 108.55794 108.55189
           A3         110.80110 110.69672 110.44162 110.13503
           A4         108.62327 108.59105 108.56784 108.55268
           A5         109.39773 109.53044 109.80471 110.13657
           A6         111.09162 111.10012 111.10352 111.09369
           A7         106.43463 106.82819 107.46757 108.19236
           A8         109.49718 109.34338 108.86319 108.18758
           A9         113.31635 113.18772 113.09767 113.07627
           A10        105.98045 106.17614 106.30959 106.35947
           A11        111.21107 110.86511 110.58354 110.38466
           A12        110.08658 110.15326 110.25274 110.38130
           A13        111.21103 110.86502 110.58364 110.38474
           A14        110.08662 110.15335 110.25264 110.38121
           A15        113.31635 113.18773 113.09767 113.07619
           A16        105.98045 106.17614 106.30960 106.35948
           A17        106.43460 106.82821 107.46756 108.19246
           A18        109.49721 109.34335 108.86319 108.18758
           A19        110.80114 110.69671 110.44163 110.13492
           A20        111.09163 111.10011 111.10351 111.09373
           A21        109.39768 109.53045 109.80470 110.13662
           A22        108.59832 108.57274 108.55793 108.55192
           A23        108.25622 108.27742 108.29402 108.30019
           A24        108.62328 108.59105 108.56784 108.55267
           D1        -178.71645-179.07306-178.64026-177.74378
           D2         -64.57842 -64.57621 -63.89251 -62.90634
           D3          58.74294  58.62647  59.02298  59.67110
           D4          62.00613  61.60385  62.00138  62.87320
           D5         176.14416 176.10069 176.74913 177.71064
           D6         -60.53448 -60.69662 -60.33539 -59.71192
           D7         -57.90670 -58.36037 -58.11502 -57.43629
           D8          56.23133  56.13647  56.63273  57.40115
           D9         179.55269 179.33916 179.54821 179.97859
           D10         30.14954  39.97916  49.41986  58.64393
           D11        -87.00306 -77.24520 -67.85847 -58.65312
           D12        150.00015 160.00016 170.00016 179.99984
           D13        -89.70114 -80.04189 -71.16038 -62.71184
           D14        153.14627 162.73376 171.56129-180.00889
           D15         30.14948  39.97911  49.41992  58.64407
           D16        153.14626 162.73375 171.56129-180.00889
           D17         35.99367  45.50940  54.28296  62.69406
           D18        -87.00312 -77.24525 -67.85841 -58.65298
           D19         58.74302  58.62658  59.02290  59.67072
           D20        179.55279 179.33927 179.54813 179.97820
           D21        -60.53440 -60.69652 -60.33547 -59.71226
           D22       -178.71644-179.07305-178.64021-177.74403
           D23        -57.90667 -58.36036 -58.11498 -57.43655
           D24         62.00614  61.60385  62.00142  62.87299
           D25        -64.57841 -64.57622 -63.89246 -62.90654
           D26         56.23136  56.13647  56.63277  57.40094
           D27        176.14417 176.10068 176.74917 177.71049
                          Input orientation:                          
 ---------------------------------------------------------------------
 Center     Atomic      Atomic             Coordinates (Angstroms)
 Number     Number       Type             X           Y           Z
 ---------------------------------------------------------------------
      1         14           0       -4.166265    3.534750    0.942262
      2          1           0       -4.455878    2.068139    0.895736
      3          1           0       -4.403889    4.103829   -0.420327
      4          1           0       -5.118906    4.177793    1.899310
      5          6           0       -2.340609    3.833206    1.476085
      6          1           0       -2.176343    4.905602    1.538416
      7          1           0       -2.213919    3.445100    2.483183
      8          6           0       -1.317046    3.187337    0.518446
      9          1           0       -1.443788    3.575287   -0.488695
     10          1           0       -1.481264    2.114914    0.456276
     11         14           0        0.508610    3.485799    1.052268
     12          1           0        0.745930    2.917590    2.415282
     13          1           0        1.461231    2.841874    0.095794
     14          1           0        0.798543    4.952369    1.097837
 ---------------------------------------------------------------------
                    Distance matrix (angstroms):
                    1          2          3          4          5
     1  Si   0.000000
     2  H    1.495657   0.000000
     3  H    1.495649   2.424615   0.000000
     4  H    1.495650   2.428458   2.428464   0.000000
     5  C    1.925374   2.815428   2.815447   2.831395   0.000000
     6  H    2.488860   3.696013   3.072699   3.052643   1.086693
     7  H    2.488801   3.072847   3.695980   3.052327   1.086703
     8  C    2.901442   3.353687   3.354080   4.164364   1.543340
     9  H    3.075900   3.641542   3.007695   4.424033   2.175125
    10  H    3.075930   3.007264   3.642246   4.423828   2.175088
    11  Si   4.676425   5.165307   5.165573   5.732824   2.901440
    12  H    5.165301   5.485380   5.997373   6.020851   3.353680
    13  H    5.732826   6.020859   6.021507   6.952377   4.164364
    14  H    5.165575   5.997380   5.485449   6.021506   3.354082
                    6          7          8          9         10
     6  H    0.000000
     7  H    1.739846   0.000000
     8  C    2.175124   2.175090   0.000000
     9  H    2.532895   3.072801   1.086693   0.000000
    10  H    3.072800   2.532691   1.086703   1.739846   0.000000
    11  Si   3.075898   3.075928   1.925374   2.488862   2.488801
    12  H    3.641534   3.007256   2.815426   3.696013   3.072846
    13  H    4.424034   4.423826   2.831396   3.052647   3.052326
    14  H    3.007697   3.642248   2.815448   3.072700   3.695980
                   11         12         13         14
    11  Si   0.000000
    12  H    1.495657   0.000000
    13  H    1.495650   2.428459   0.000000
    14  H    1.495649   2.424615   2.428464   0.000000
 Stoichiometry    C2H10Si2
 Framework group  C1[X(C2H10Si2)]
 Deg. of freedom    36
 Full point group                 C1      NOp   1
 Largest Abelian subgroup         C1      NOp   1
 Largest concise Abelian subgroup C1      NOp   1
                         Standard orientation:                         
 ---------------------------------------------------------------------
 Center     Atomic      Atomic             Coordinates (Angstroms)
 Number     Number       Type             X           Y           Z
 ---------------------------------------------------------------------
      1         14           0        2.337647   -0.051422    0.000007
      2          1           0        2.594543   -0.889215   -1.212057
      3          1           0        2.594858   -0.888397    1.212558
      4          1           0        3.299610    1.093828   -0.000515
      5          6           0        0.516462    0.573358    0.000004
      6          1           0        0.375963    1.209353    0.869873
      7          1           0        0.376012    1.209234   -0.869973
      8          6           0       -0.516463   -0.573360    0.000004
      9          1           0       -0.375964   -1.209357    0.869871
     10          1           0       -0.376013   -1.209233   -0.869975
     11         14           0       -2.337647    0.051423    0.000007
     12          1           0       -2.594537    0.889223   -1.212053
     13          1           0       -3.299612   -1.093825   -0.000524
     14          1           0       -2.594860    0.888391    1.212562
 ---------------------------------------------------------------------
 Rotational constants (GHZ):     17.7296352      1.3629496      1.3252306

 **********************************************************************

            Population analysis using the SCF density.

 **********************************************************************

 Orbital symmetries:
       Occupied  (A) (A) (A) (A) (A) (A) (A) (A) (A) (A) (A) (A)
                 (A) (A) (A) (A) (A) (A) (A) (A) (A) (A) (A) (A)
                 (A)
       Virtual   (A) (A) (A) (A) (A) (A) (A) (A) (A) (A) (A) (A)
                 (A) (A) (A) (A) (A) (A) (A) (A) (A) (A) (A) (A)
                 (A) (A) (A) (A) (A) (A) (A) (A) (A) (A) (A) (A)
                 (A) (A) (A)
 The electronic state is 1-A.
 Alpha  occ. eigenvalues --  -68.77622 -68.77622 -11.23122 -11.23070  -6.14265
 Alpha  occ. eigenvalues --   -6.14265  -4.24777  -4.24777  -4.24770  -4.24770
 Alpha  occ. eigenvalues --   -4.24688  -4.24688  -1.03104  -0.85940  -0.72051
 Alpha  occ. eigenvalues --   -0.70821  -0.62403  -0.53495  -0.51579  -0.51251
 Alpha  occ. eigenvalues --   -0.46748  -0.46528  -0.46445  -0.46208  -0.39028
 Alpha virt. eigenvalues --    0.14569   0.15472   0.19250   0.19469   0.19962
 Alpha virt. eigenvalues --    0.20673   0.26652   0.27510   0.28144   0.29284
 Alpha virt. eigenvalues --    0.29986   0.30591   0.34021   0.38088   0.39994
 Alpha virt. eigenvalues --    0.40134   0.41380   0.41943   0.45195   0.50163
 Alpha virt. eigenvalues --    0.62614   0.78152   0.80429   0.94197   0.97312
 Alpha virt. eigenvalues --    1.01024   1.07038   1.19821   1.20306   1.23023
 Alpha virt. eigenvalues --    1.23474   1.24721   1.25162   1.25779   1.29922
 Alpha virt. eigenvalues --    1.31252   1.31910   1.37005   1.67094
          Condensed to atoms (all electrons):
               1          2          3          4          5          6
     1  Si  11.767689   0.365510   0.365509   0.364302   0.303944  -0.020869
     2  H    0.365510   0.903382  -0.023317  -0.023102  -0.025683   0.000695
     3  H    0.365509  -0.023317   0.903379  -0.023101  -0.025681  -0.000601
     4  H    0.364302  -0.023102  -0.023101   0.904605  -0.025055  -0.000007
     5  C    0.303944  -0.025683  -0.025681  -0.025055   5.601943   0.379770
     6  H   -0.020869   0.000695  -0.000601  -0.000007   0.379770   0.524476
     7  H   -0.020873  -0.000601   0.000695  -0.000008   0.379771  -0.026962
     8  C   -0.032393   0.000189   0.000188   0.000878   0.207846  -0.041881
     9  H   -0.002238  -0.000039   0.001249  -0.000013  -0.041881  -0.001685
    10  H   -0.002242   0.001250  -0.000039  -0.000013  -0.041886   0.003872
    11  Si   0.003513  -0.000050  -0.000050  -0.000096  -0.032393  -0.002238
    12  H   -0.000050   0.000001   0.000000   0.000000   0.000189  -0.000039
    13  H   -0.000096   0.000000   0.000000   0.000000   0.000878  -0.000013
    14  H   -0.000050   0.000000   0.000001   0.000000   0.000188   0.001249
               7          8          9         10         11         12
     1  Si  -0.020873  -0.032393  -0.002238  -0.002242   0.003513  -0.000050
     2  H   -0.000601   0.000189  -0.000039   0.001250  -0.000050   0.000001
     3  H    0.000695   0.000188   0.001249  -0.000039  -0.000050   0.000000
     4  H   -0.000008   0.000878  -0.000013  -0.000013  -0.000096   0.000000
     5  C    0.379771   0.207846  -0.041881  -0.041886  -0.032393   0.000189
     6  H   -0.026962  -0.041881  -0.001685   0.003872  -0.002238  -0.000039
     7  H    0.524492  -0.041886   0.003872  -0.001687  -0.002242   0.001250
     8  C   -0.041886   5.601942   0.379770   0.379771   0.303944  -0.025683
     9  H    0.003872   0.379770   0.524476  -0.026962  -0.020869   0.000695
    10  H   -0.001687   0.379771  -0.026962   0.524492  -0.020873  -0.000601
    11  Si  -0.002242   0.303944  -0.020869  -0.020873  11.767689   0.365510
    12  H    0.001250  -0.025683   0.000695  -0.000601   0.365510   0.903382
    13  H   -0.000013  -0.025055  -0.000007  -0.000008   0.364302  -0.023102
    14  H   -0.000039  -0.025681  -0.000601   0.000695   0.365509  -0.023317
              13         14
     1  Si  -0.000096  -0.000050
     2  H    0.000000   0.000000
     3  H    0.000000   0.000001
     4  H    0.000000   0.000000
     5  C    0.000878   0.000188
     6  H   -0.000013   0.001249
     7  H   -0.000013  -0.000039
     8  C   -0.025055  -0.025681
     9  H   -0.000007  -0.000601
    10  H   -0.000008   0.000695
    11  Si   0.364302   0.365509
    12  H   -0.023102  -0.023317
    13  H    0.904605  -0.023101
    14  H   -0.023101   0.903379
 Mulliken charges:
               1
     1  Si   0.908344
     2  H   -0.198234
     3  H   -0.198232
     4  H   -0.198391
     5  C   -0.681950
     6  H    0.184233
     7  H    0.184231
     8  C   -0.681950
     9  H    0.184233
    10  H    0.184231
    11  Si   0.908344
    12  H   -0.198234
    13  H   -0.198391
    14  H   -0.198232
 Sum of Mulliken charges =   0.00000
 Mulliken charges with hydrogens summed into heavy atoms:
               1
     1  Si   0.313486
     5  C   -0.313486
     8  C   -0.313486
    11  Si   0.313486
 Electronic spatial extent (au):  <R**2>=            926.6559
 Charge=              0.0000 electrons
 Dipole moment (field-independent basis, Debye):
    X=              0.0000    Y=              0.0000    Z=              0.0000  Tot=              0.0000
 Quadrupole moment (field-independent basis, Debye-Ang):
   XX=            -50.4235   YY=            -46.1386   ZZ=            -46.0131
   XY=              0.5999   XZ=              0.0000   YZ=              0.0000
 Traceless Quadrupole moment (field-independent basis, Debye-Ang):
   XX=             -2.8984   YY=              1.3865   ZZ=              1.5120
   XY=              0.5999   XZ=              0.0000   YZ=              0.0000
 Octapole moment (field-independent basis, Debye-Ang**2):
  XXX=              0.0000  YYY=              0.0000  ZZZ=             -0.0040  XYY=              0.0000
  XXY=              0.0000  XXZ=              0.0007  XZZ=              0.0000  YZZ=              0.0000
  YYZ=              0.0038  XYZ=              0.0012
 Hexadecapole moment (field-independent basis, Debye-Ang**3):
 XXXX=          -1265.6376 YYYY=           -146.9047 ZZZZ=           -114.8537 XXXY=            -19.3022
 XXXZ=              0.0000 YYYX=              1.0409 YYYZ=              0.0000 ZZZX=              0.0001
 ZZZY=              0.0000 XXYY=           -248.1398 XXZZ=           -236.9964 YYZZ=            -43.2053
 XXYZ=             -0.0001 YYXZ=             -0.0001 ZZXY=             12.2613
 N-N= 2.077050686637D+02 E-N=-1.982436233342D+03  KE= 6.596075724720D+02
 1\1\GINC-CORN15\Scan\RHF\6-31G\C2H10Si2\JOEBURG\06-Sep-2016\0\\# opt=m
 odredundant hf/6-31g geom=connectivity\\Title Card Required\\0,1\Si,-4
 .1662649017,3.5347502186,0.9422619734\H,-4.4558775218,2.0681386756,0.8
 957355028\H,-4.4038894263,4.103828655,-0.4203273972\H,-5.1189061102,4.
 1777929806,1.8993096527\C,-2.3406085641,3.8332064319,1.4760846669\H,-2
 .1763427379,4.9056020066,1.5384162398\H,-2.2139189976,3.4450997357,2.4
 831828676\C,-1.3170460423,3.1873374176,0.5184457615\H,-1.4437881801,3.
 5752867505,-0.4886950032\H,-1.4812641438,2.1149144565,0.4562764935\Si,
 0.5086095863,3.4857992021,1.0522680446\H,0.7459304543,2.9175896443,2.4
 15281742\H,1.4612305686,2.8418738962,0.0957938032\H,0.7985429871,4.952
 36919,1.0978366925\\Version=EM64L-G09RevD.01\State=1-A\HF=-659.2389706
 ,-659.2396904,-659.2410631,-659.2427702,-659.2444967,-659.2459588,-659
 .2469238,-659.2472714,-659.2470768,-659.24659,-659.2459499,-659.245312
 7,-659.2450448,-659.245371,-659.2462468,-659.2474157,-659.2485457,-659
 .2493472,-659.2496352\RMSD=2.547e-09,3.548e-09,2.123e-09,3.024e-09,5.5
 79e-09,3.619e-09,1.229e-09,2.299e-09,2.494e-09,4.622e-09,2.880e-09,8.9
 98e-09,8.605e-09,1.487e-09,4.293e-09,4.419e-09,3.685e-09,2.512e-09,3.2
 51e-09\PG=C01 [X(C2H10Si2)]\\@


 THE WHOLE OF SCIENCE IS NOTHING MORE THAN A REFINEMENT OF EVERYDAY THINKING.
                                                              -- A. EINSTEIN
 Job cpu time:       0 days  0 hours  4 minutes 33.4 seconds.
 File lengths (MBytes):  RWF=      6 Int=      0 D2E=      0 Chk=      3 Scr=      1
 Normal termination of Gaussian 09 at Tue Sep  6 18:07:28 2016.
