 Entering Gaussian System, Link 0=g09
 Input=/afs/.ir.stanford.edu/users/j/o/joeburg/Gaussian Input/EtOCSMethyl_RHF6-31G_scan_0_180.com
 Output=/afs/.ir.stanford.edu/users/j/o/joeburg/Gaussian Input/EtOCSMethyl_RHF6-31G_scan_0_180.log
 Initial command:
 /farmshare/software/non-free/gaussian/D.01/g09D.01/l1.exe "/tmp/Gau-20224.inp" -scrdir="/tmp/"
 Entering Link 1 = /farmshare/software/non-free/gaussian/D.01/g09D.01/l1.exe PID=     20226.
  
 Copyright (c) 1988,1990,1992,1993,1995,1998,2003,2009,2013,
            Gaussian, Inc.  All Rights Reserved.
  
 This is part of the Gaussian(R) 09 program.  It is based on
 the Gaussian(R) 03 system (copyright 2003, Gaussian, Inc.),
 the Gaussian(R) 98 system (copyright 1998, Gaussian, Inc.),
 the Gaussian(R) 94 system (copyright 1995, Gaussian, Inc.),
 the Gaussian 92(TM) system (copyright 1992, Gaussian, Inc.),
 the Gaussian 90(TM) system (copyright 1990, Gaussian, Inc.),
 the Gaussian 88(TM) system (copyright 1988, Gaussian, Inc.),
 the Gaussian 86(TM) system (copyright 1986, Carnegie Mellon
 University), and the Gaussian 82(TM) system (copyright 1983,
 Carnegie Mellon University). Gaussian is a federally registered
 trademark of Gaussian, Inc.
  
 This software contains proprietary and confidential information,
 including trade secrets, belonging to Gaussian, Inc.
  
 This software is provided under written license and may be
 used, copied, transmitted, or stored only in accord with that
 written license.
  
 The following legend is applicable only to US Government
 contracts under FAR:
  
                    RESTRICTED RIGHTS LEGEND
  
 Use, reproduction and disclosure by the US Government is
 subject to restrictions as set forth in subparagraphs (a)
 and (c) of the Commercial Computer Software - Restricted
 Rights clause in FAR 52.227-19.
  
 Gaussian, Inc.
 340 Quinnipiac St., Bldg. 40, Wallingford CT 06492
  
  
 ---------------------------------------------------------------
 Warning -- This program may not be used in any manner that
 competes with the business of Gaussian, Inc. or will provide
 assistance to any competitor of Gaussian, Inc.  The licensee
 of this program is prohibited from giving any competitor of
 Gaussian, Inc. access to this program.  By using this program,
 the user acknowledges that Gaussian, Inc. is engaged in the
 business of creating and licensing software in the field of
 computational chemistry and represents and warrants to the
 licensee that it is not a competitor of Gaussian, Inc. and that
 it will not use this program in any manner prohibited above.
 ---------------------------------------------------------------
  

 Cite this work as:
 Gaussian 09, Revision D.01,
 M. J. Frisch, G. W. Trucks, H. B. Schlegel, G. E. Scuseria, 
 M. A. Robb, J. R. Cheeseman, G. Scalmani, V. Barone, B. Mennucci, 
 G. A. Petersson, H. Nakatsuji, M. Caricato, X. Li, H. P. Hratchian, 
 A. F. Izmaylov, J. Bloino, G. Zheng, J. L. Sonnenberg, M. Hada, 
 M. Ehara, K. Toyota, R. Fukuda, J. Hasegawa, M. Ishida, T. Nakajima, 
 Y. Honda, O. Kitao, H. Nakai, T. Vreven, J. A. Montgomery, Jr., 
 J. E. Peralta, F. Ogliaro, M. Bearpark, J. J. Heyd, E. Brothers, 
 K. N. Kudin, V. N. Staroverov, T. Keith, R. Kobayashi, J. Normand, 
 K. Raghavachari, A. Rendell, J. C. Burant, S. S. Iyengar, J. Tomasi, 
 M. Cossi, N. Rega, J. M. Millam, M. Klene, J. E. Knox, J. B. Cross, 
 V. Bakken, C. Adamo, J. Jaramillo, R. Gomperts, R. E. Stratmann, 
 O. Yazyev, A. J. Austin, R. Cammi, C. Pomelli, J. W. Ochterski, 
 R. L. Martin, K. Morokuma, V. G. Zakrzewski, G. A. Voth, 
 P. Salvador, J. J. Dannenberg, S. Dapprich, A. D. Daniels, 
 O. Farkas, J. B. Foresman, J. V. Ortiz, J. Cioslowski, 
 and D. J. Fox, Gaussian, Inc., Wallingford CT, 2013.
 
 ******************************************
 Gaussian 09:  EM64L-G09RevD.01 24-Apr-2013
                 6-Sep-2016 
 ******************************************
 %chk=EtOCSMethyl_RHF6-31G_scan_0_180.chk
 ---------------------------------------------
 # opt=modredundant hf/6-31g geom=connectivity
 ---------------------------------------------
 1/18=120,19=15,38=1,57=2/1,3;
 2/9=110,12=2,17=6,18=5,40=1/2;
 3/5=1,6=6,11=9,16=1,25=1,30=1,71=1/1,2,3;
 4//1;
 5/5=2,38=5/2;
 6/7=2,8=2,9=2,10=2,28=1/1;
 7//1,2,3,16;
 1/18=20,19=15/3(2);
 2/9=110/2;
 99//99;
 2/9=110/2;
 3/5=1,6=6,11=9,16=1,25=1,30=1,71=1/1,2,3;
 4/5=5,16=3,69=1/1;
 5/5=2,38=5/2;
 7//1,2,3,16;
 1/18=20,19=15/3(-5);
 2/9=110/2;
 6/7=2,8=2,9=2,10=2,19=2,28=1/1;
 99/9=1/99;
 -------------------
 Title Card Required
 -------------------
 Symbolic Z-matrix:
 Charge =  0 Multiplicity = 1
 C                    -2.76671   3.22339   0.43729 
 H                    -1.82402   3.68231   0.22368 
 H                    -3.47139   3.97444   0.72757 
 C                    -2.59593   2.20925   1.58357 
 H                    -1.89125   1.45821   1.29328 
 H                    -3.53862   1.75033   1.79717 
 Si                   -1.94925   3.12545   3.16659 
 H                    -0.65447   2.55647   3.56747 
 H                    -2.91768   2.9578    4.25973 
 C                    -1.73327   5.01381   2.77794 
 H                    -2.67573   5.42797   2.48615 
 H                    -1.3766    5.51914   3.65105 
 H                    -1.02836   5.13584   1.98226 
 Si                   -3.41339   2.30719  -1.14574 
 H                    -3.57641   3.27524  -2.23991 
 H                    -2.44528   1.27539  -1.54454 
 H                    -4.70849   1.67672  -0.85228 
 
 The following ModRedundant input section has been read:
 D       1       4       7      10 S  18 10.000                                
 

 GradGradGradGradGradGradGradGradGradGradGradGradGradGradGradGradGradGrad
 Berny optimization.
 Initialization pass.
                           ----------------------------
                           !    Initial Parameters    !
                           ! (Angstroms and Degrees)  !
 --------------------------                            --------------------------
 ! Name  Definition              Value          Derivative Info.                !
 --------------------------------------------------------------------------------
 ! R1    R(1,2)                  1.07           estimate D2E/DX2                !
 ! R2    R(1,3)                  1.07           estimate D2E/DX2                !
 ! R3    R(1,4)                  1.54           estimate D2E/DX2                !
 ! R4    R(1,14)                 1.94           estimate D2E/DX2                !
 ! R5    R(4,5)                  1.07           estimate D2E/DX2                !
 ! R6    R(4,6)                  1.07           estimate D2E/DX2                !
 ! R7    R(4,7)                  1.94           estimate D2E/DX2                !
 ! R8    R(7,8)                  1.47           estimate D2E/DX2                !
 ! R9    R(7,9)                  1.47           estimate D2E/DX2                !
 ! R10   R(7,10)                 1.94           estimate D2E/DX2                !
 ! R11   R(10,11)                1.07           estimate D2E/DX2                !
 ! R12   R(10,12)                1.07           estimate D2E/DX2                !
 ! R13   R(10,13)                1.07           estimate D2E/DX2                !
 ! R14   R(14,15)                1.47           estimate D2E/DX2                !
 ! R15   R(14,16)                1.47           estimate D2E/DX2                !
 ! R16   R(14,17)                1.47           estimate D2E/DX2                !
 ! A1    A(2,1,3)              109.4712         estimate D2E/DX2                !
 ! A2    A(2,1,4)              109.4712         estimate D2E/DX2                !
 ! A3    A(2,1,14)             109.4712         estimate D2E/DX2                !
 ! A4    A(3,1,4)              109.4712         estimate D2E/DX2                !
 ! A5    A(3,1,14)             109.4712         estimate D2E/DX2                !
 ! A6    A(4,1,14)             109.4712         estimate D2E/DX2                !
 ! A7    A(1,4,5)              109.4712         estimate D2E/DX2                !
 ! A8    A(1,4,6)              109.4712         estimate D2E/DX2                !
 ! A9    A(1,4,7)              109.4712         estimate D2E/DX2                !
 ! A10   A(5,4,6)              109.4712         estimate D2E/DX2                !
 ! A11   A(5,4,7)              109.4712         estimate D2E/DX2                !
 ! A12   A(6,4,7)              109.4712         estimate D2E/DX2                !
 ! A13   A(4,7,8)              109.4712         estimate D2E/DX2                !
 ! A14   A(4,7,9)              109.4712         estimate D2E/DX2                !
 ! A15   A(4,7,10)             109.4712         estimate D2E/DX2                !
 ! A16   A(8,7,9)              109.4712         estimate D2E/DX2                !
 ! A17   A(8,7,10)             109.4712         estimate D2E/DX2                !
 ! A18   A(9,7,10)             109.4712         estimate D2E/DX2                !
 ! A19   A(7,10,11)            109.4712         estimate D2E/DX2                !
 ! A20   A(7,10,12)            109.4712         estimate D2E/DX2                !
 ! A21   A(7,10,13)            109.4712         estimate D2E/DX2                !
 ! A22   A(11,10,12)           109.4712         estimate D2E/DX2                !
 ! A23   A(11,10,13)           109.4712         estimate D2E/DX2                !
 ! A24   A(12,10,13)           109.4712         estimate D2E/DX2                !
 ! A25   A(1,14,15)            109.4712         estimate D2E/DX2                !
 ! A26   A(1,14,16)            109.4712         estimate D2E/DX2                !
 ! A27   A(1,14,17)            109.4712         estimate D2E/DX2                !
 ! A28   A(15,14,16)           109.4712         estimate D2E/DX2                !
 ! A29   A(15,14,17)           109.4712         estimate D2E/DX2                !
 ! A30   A(16,14,17)           109.4712         estimate D2E/DX2                !
 ! D1    D(2,1,4,5)            -60.0            estimate D2E/DX2                !
 ! D2    D(2,1,4,6)           -180.0            estimate D2E/DX2                !
 ! D3    D(2,1,4,7)             60.0            estimate D2E/DX2                !
 ! D4    D(3,1,4,5)            180.0            estimate D2E/DX2                !
 ! D5    D(3,1,4,6)             60.0            estimate D2E/DX2                !
 ! D6    D(3,1,4,7)            -60.0            estimate D2E/DX2                !
 ! D7    D(14,1,4,5)            60.0            estimate D2E/DX2                !
 ! D8    D(14,1,4,6)           -60.0            estimate D2E/DX2                !
 ! D9    D(14,1,4,7)           180.0            estimate D2E/DX2                !
 ! D10   D(2,1,14,15)          -60.0            estimate D2E/DX2                !
 ! D11   D(2,1,14,16)           60.0            estimate D2E/DX2                !
 ! D12   D(2,1,14,17)          180.0            estimate D2E/DX2                !
 ! D13   D(3,1,14,15)           60.0            estimate D2E/DX2                !
 ! D14   D(3,1,14,16)          180.0            estimate D2E/DX2                !
 ! D15   D(3,1,14,17)          -60.0            estimate D2E/DX2                !
 ! D16   D(4,1,14,15)          180.0            estimate D2E/DX2                !
 ! D17   D(4,1,14,16)          -60.0            estimate D2E/DX2                !
 ! D18   D(4,1,14,17)           60.0            estimate D2E/DX2                !
 ! D19   D(1,4,7,8)           -120.0            estimate D2E/DX2                !
 ! D20   D(1,4,7,9)            120.0            estimate D2E/DX2                !
 ! D21   D(1,4,7,10)             0.0            Scan                            !
 ! D22   D(5,4,7,8)              0.0            estimate D2E/DX2                !
 ! D23   D(5,4,7,9)           -120.0            estimate D2E/DX2                !
 ! D24   D(5,4,7,10)           120.0            estimate D2E/DX2                !
 ! D25   D(6,4,7,8)            120.0            estimate D2E/DX2                !
 ! D26   D(6,4,7,9)              0.0            estimate D2E/DX2                !
 ! D27   D(6,4,7,10)          -120.0            estimate D2E/DX2                !
 ! D28   D(4,7,10,11)           60.0            estimate D2E/DX2                !
 ! D29   D(4,7,10,12)          180.0            estimate D2E/DX2                !
 ! D30   D(4,7,10,13)          -60.0            estimate D2E/DX2                !
 ! D31   D(8,7,10,11)          180.0            estimate D2E/DX2                !
 ! D32   D(8,7,10,12)          -60.0            estimate D2E/DX2                !
 ! D33   D(8,7,10,13)           60.0            estimate D2E/DX2                !
 ! D34   D(9,7,10,11)          -60.0            estimate D2E/DX2                !
 ! D35   D(9,7,10,12)           60.0            estimate D2E/DX2                !
 ! D36   D(9,7,10,13)          180.0            estimate D2E/DX2                !
 --------------------------------------------------------------------------------
 Trust Radius=3.00D-01 FncErr=1.00D-07 GrdErr=1.00D-07
 Number of optimizations in scan=  19
 Number of steps in this run=     92 maximum allowed number of steps=    102.
 GradGradGradGradGradGradGradGradGradGradGradGradGradGradGradGradGradGrad

                          Input orientation:                          
 ---------------------------------------------------------------------
 Center     Atomic      Atomic             Coordinates (Angstroms)
 Number     Number       Type             X           Y           Z
 ---------------------------------------------------------------------
      1          6           0       -2.766712    3.223393    0.437291
      2          1           0       -1.824020    3.682311    0.223684
      3          1           0       -3.471389    3.974436    0.727574
      4          6           0       -2.595931    2.209250    1.583566
      5          1           0       -1.891253    1.458207    1.293283
      6          1           0       -3.538622    1.750332    1.797172
      7         14           0       -1.949253    3.125451    3.166595
      8          1           0       -0.654472    2.556468    3.567470
      9          1           0       -2.917680    2.957800    4.259729
     10          6           0       -1.733273    5.013810    2.777939
     11          1           0       -2.675733    5.427968    2.486146
     12          1           0       -1.376600    5.519138    3.651053
     13          1           0       -1.028364    5.135842    1.982256
     14         14           0       -3.413390    2.307192   -1.145739
     15          1           0       -3.576408    3.275238   -2.239910
     16          1           0       -2.445281    1.275385   -1.544539
     17          1           0       -4.708489    1.676717   -0.852279
 ---------------------------------------------------------------------
                    Distance matrix (angstroms):
                    1          2          3          4          5
     1  C    0.000000
     2  H    1.070000   0.000000
     3  H    1.070000   1.747303   0.000000
     4  C    1.540000   2.148263   2.148263   0.000000
     5  H    2.148263   2.468846   3.024610   1.070000   0.000000
     6  H    2.148263   3.024610   2.468846   1.070000   1.747303
     7  Si   2.850778   2.997749   2.997749   1.940000   2.508459
     8  H    3.834627   3.717024   4.243898   2.797445   2.812069
     9  H    3.834627   4.243898   3.717024   2.797445   3.478812
    10  C    3.122855   2.881899   2.881899   3.168007   3.856356
    11  H    3.011019   2.981856   2.416278   3.343825   4.218689
    12  H    4.187018   3.914202   3.914202   4.088598   4.723887
    13  H    3.011019   2.416278   2.981856   3.343825   3.839826
    14  Si   1.940000   2.508459   2.508459   2.850778   2.997749
    15  H    2.797445   3.050552   3.050552   4.088598   4.315646
    16  H    2.797445   3.050552   3.674271   3.268001   2.897171
    17  H    2.797445   3.674271   3.050552   3.268001   3.547957
                    6          7          8          9         10
     6  H    0.000000
     7  Si   2.508459   0.000000
     8  H    3.478812   1.470000   0.000000
     9  H    2.812069   1.470000   2.400500   0.000000
    10  C    3.856356   1.940000   2.797445   2.797445   0.000000
    11  H    3.839826   2.508459   3.674271   3.050552   1.070000
    12  H    4.723887   2.508459   3.050552   3.050552   1.070000
    13  H    4.218689   2.508459   3.050552   3.674271   1.070000
    14  Si   2.997749   4.627036   5.467001   5.467001   5.054090
    15  H    4.315646   5.648041   6.540642   6.540642   5.621262
    16  H    3.547957   5.085624   5.566040   6.061617   5.759044
    17  H    2.897171   5.085624   6.061617   5.566040   5.759044
                   11         12         13         14         15
    11  H    0.000000
    12  H    1.747303   0.000000
    13  H    1.747303   1.747303   0.000000
    14  Si   4.844994   6.121627   4.844994   0.000000
    15  H    5.270775   6.676653   5.270775   1.470000   0.000000
    16  H    5.791672   6.793062   5.417478   1.470000   2.400500
    17  H    5.417478   6.793062   5.791672   1.470000   2.400500
                   16         17
    16  H    0.000000
    17  H    2.400500   0.000000
 Stoichiometry    C3H12Si2
 Framework group  CS[SG(C3H2Si2),X(H10)]
 Deg. of freedom    26
 Full point group                 CS      NOp   2
 Largest Abelian subgroup         CS      NOp   2
 Largest concise Abelian subgroup CS      NOp   2
                         Standard orientation:                         
 ---------------------------------------------------------------------
 Center     Atomic      Atomic             Coordinates (Angstroms)
 Number     Number       Type             X           Y           Z
 ---------------------------------------------------------------------
      1          6           0       -0.137298    0.845505    0.000000
      2          1           0       -0.753033    0.795461    0.873651
      3          1           0       -0.753033    0.795461   -0.873651
      4          6           0        0.850761   -0.335740    0.000000
      5          1           0        1.466495   -0.285695    0.873651
      6          1           0        1.466495   -0.285695   -0.873651
      7         14           0       -0.137298   -2.005272    0.000000
      8          1           0        0.209495   -2.779891    1.200250
      9          1           0        0.209495   -2.779891   -1.200250
     10          6           0       -2.040702   -1.630232    0.000000
     11          1           0       -2.293129   -1.066394   -0.873651
     12          1           0       -2.585662   -2.551057    0.000000
     13          1           0       -2.293129   -1.066394    0.873651
     14         14           0        0.850761    2.515038    0.000000
     15          1           0       -0.092386    3.642590    0.000000
     16          1           0        1.696676    2.583791    1.200250
     17          1           0        1.696676    2.583791   -1.200250
 ---------------------------------------------------------------------
 Rotational constants (GHZ):      6.8143064      1.1511997      1.0265242
 Standard basis: 6-31G (6D, 7F)
 There are    55 symmetry adapted cartesian basis functions of A'  symmetry.
 There are    22 symmetry adapted cartesian basis functions of A"  symmetry.
 There are    55 symmetry adapted basis functions of A'  symmetry.
 There are    22 symmetry adapted basis functions of A"  symmetry.
    77 basis functions,   206 primitive gaussians,    77 cartesian basis functions
    29 alpha electrons       29 beta electrons
       nuclear repulsion energy       283.0612229643 Hartrees.
 NAtoms=   17 NActive=   17 NUniq=   12 SFac= 2.01D+00 NAtFMM=   60 NAOKFM=F Big=F
 Integral buffers will be    131072 words long.
 Raffenetti 1 integral format.
 Two-electron integral symmetry is turned on.
 One-electron integrals computed using PRISM.
 NBasis=    77 RedAO= T EigKep=  1.22D-02  NBF=    55    22
 NBsUse=    77 1.00D-06 EigRej= -1.00D+00 NBFU=    55    22
 ExpMin= 7.78D-02 ExpMax= 1.61D+04 ExpMxC= 2.43D+03 IAcc=2 IRadAn=         4 AccDes= 0.00D+00
 Harris functional with IExCor=  205 and IRadAn=       4 diagonalized for initial guess.
 HarFok:  IExCor=  205 AccDes= 0.00D+00 IRadAn=         4 IDoV= 1 UseB2=F ITyADJ=14
 ICtDFT=  3500011 ScaDFX=  1.000000  1.000000  1.000000  1.000000
 FoFCou: FMM=F IPFlag=           0 FMFlag=      100000 FMFlg1=           0
         NFxFlg=           0 DoJE=T BraDBF=F KetDBF=T FulRan=T
         wScrn=  0.000000 ICntrl=     500 IOpCl=  0 I1Cent=   200000004 NGrid=           0
         NMat0=    1 NMatS0=      1 NMatT0=    0 NMatD0=    1 NMtDS0=    0 NMtDT0=    0
 Petite list used in FoFCou.
 Initial guess orbital symmetries:
       Occupied  (A') (A') (A') (A') (A') (A') (A') (A') (A") (A')
                 (A") (A') (A') (A') (A') (A') (A') (A") (A') (A')
                 (A") (A') (A") (A') (A') (A') (A") (A") (A')
       Virtual   (A') (A') (A') (A") (A') (A") (A') (A") (A') (A')
                 (A') (A') (A") (A') (A') (A") (A') (A') (A") (A")
                 (A') (A') (A') (A') (A') (A") (A') (A") (A') (A')
                 (A') (A") (A') (A") (A') (A') (A") (A') (A") (A')
                 (A') (A') (A") (A") (A') (A') (A') (A')
 The electronic state of the initial guess is 1-A'.
 Keep R1 ints in memory in symmetry-blocked form, NReq=6895981.
 Requested convergence on RMS density matrix=1.00D-08 within 128 cycles.
 Requested convergence on MAX density matrix=1.00D-06.
 Requested convergence on             energy=1.00D-06.
 No special actions if energy rises.
 SCF Done:  E(RHF) =  -698.276177768     A.U. after   11 cycles
            NFock= 11  Conv=0.78D-08     -V/T= 1.9990

 **********************************************************************

            Population analysis using the SCF density.

 **********************************************************************

 Orbital symmetries:
       Occupied  (A') (A') (A') (A') (A') (A') (A') (A') (A") (A")
                 (A') (A') (A') (A') (A') (A') (A') (A') (A") (A')
                 (A") (A') (A") (A') (A") (A') (A") (A') (A')
       Virtual   (A') (A') (A') (A") (A') (A") (A') (A") (A') (A')
                 (A") (A') (A') (A') (A") (A') (A') (A') (A") (A")
                 (A') (A') (A') (A') (A') (A") (A') (A") (A') (A')
                 (A") (A') (A') (A") (A') (A') (A") (A') (A') (A")
                 (A') (A") (A') (A") (A') (A') (A') (A')
 The electronic state is 1-A'.
 Alpha  occ. eigenvalues --  -68.76966 -68.76764 -11.22115 -11.21672 -11.20438
 Alpha  occ. eigenvalues --   -6.13579  -6.13473  -4.24094  -4.24088  -4.24031
 Alpha  occ. eigenvalues --   -4.23974  -4.23970  -4.23877  -1.03232  -0.94761
 Alpha  occ. eigenvalues --   -0.85024  -0.71935  -0.68644  -0.63146  -0.56850
 Alpha  occ. eigenvalues --   -0.56417  -0.52257  -0.51964  -0.49677  -0.47086
 Alpha  occ. eigenvalues --   -0.46515  -0.45592  -0.42807  -0.37542
 Alpha virt. eigenvalues --    0.14808   0.16686   0.18348   0.19651   0.20949
 Alpha virt. eigenvalues --    0.22476   0.24480   0.26589   0.28348   0.28517
 Alpha virt. eigenvalues --    0.30888   0.31149   0.32227   0.33221   0.35363
 Alpha virt. eigenvalues --    0.37499   0.40412   0.41620   0.42561   0.45061
 Alpha virt. eigenvalues --    0.45531   0.51008   0.52988   0.59386   0.77115
 Alpha virt. eigenvalues --    0.77711   0.80882   0.86260   0.89371   0.96385
 Alpha virt. eigenvalues --    1.04716   1.05525   1.16618   1.20856   1.21918
 Alpha virt. eigenvalues --    1.23214   1.24840   1.25401   1.26176   1.26587
 Alpha virt. eigenvalues --    1.29495   1.31352   1.31982   1.35361   1.36891
 Alpha virt. eigenvalues --    1.38069   1.44402   1.82110
          Condensed to atoms (all electrons):
               1          2          3          4          5          6
     1  C    5.603841   0.383653   0.383653   0.199864  -0.045678  -0.045678
     2  H    0.383653   0.527982  -0.023144  -0.045027  -0.001501   0.004413
     3  H    0.383653  -0.023144   0.527982  -0.045027   0.004413  -0.001501
     4  C    0.199864  -0.045027  -0.045027   5.651506   0.383679   0.383679
     5  H   -0.045678  -0.001501   0.004413   0.383679   0.521182  -0.023353
     6  H   -0.045678   0.004413  -0.001501   0.383679  -0.023353   0.521182
     7  Si  -0.034735  -0.004849  -0.004849   0.296429  -0.020422  -0.020422
     8  H    0.000947   0.000061   0.000016  -0.030309  -0.000142   0.000506
     9  H    0.000947   0.000016   0.000061  -0.030309   0.000506  -0.000142
    10  C   -0.008915  -0.000642  -0.000642  -0.031540   0.000542   0.000542
    11  H   -0.000566   0.000096   0.000636   0.000213   0.000001   0.000027
    12  H    0.000201   0.000033   0.000033   0.000929  -0.000008  -0.000008
    13  H   -0.000566   0.000636   0.000096   0.000213   0.000027   0.000001
    14  Si   0.313775  -0.020892  -0.020892  -0.040589  -0.002816  -0.002816
    15  H   -0.028220   0.000090   0.000090   0.001309  -0.000014  -0.000014
    16  H   -0.025706  -0.000249   0.000622  -0.000234   0.001541  -0.000029
    17  H   -0.025706   0.000622  -0.000249  -0.000234  -0.000029   0.001541
               7          8          9         10         11         12
     1  C   -0.034735   0.000947   0.000947  -0.008915  -0.000566   0.000201
     2  H   -0.004849   0.000061   0.000016  -0.000642   0.000096   0.000033
     3  H   -0.004849   0.000016   0.000061  -0.000642   0.000636   0.000033
     4  C    0.296429  -0.030309  -0.030309  -0.031540   0.000213   0.000929
     5  H   -0.020422  -0.000142   0.000506   0.000542   0.000001  -0.000008
     6  H   -0.020422   0.000506  -0.000142   0.000542   0.000027  -0.000008
     7  Si  11.702346   0.376850   0.376850   0.321708  -0.020625  -0.020749
     8  H    0.376850   0.914412  -0.026644  -0.029198   0.000860   0.000042
     9  H    0.376850  -0.026644   0.914412  -0.029198  -0.000616   0.000042
    10  C    0.321708  -0.029198  -0.029198   5.512427   0.370318   0.369737
    11  H   -0.020625   0.000860  -0.000616   0.370318   0.520424  -0.022176
    12  H   -0.020749   0.000042   0.000042   0.369737  -0.022176   0.516898
    13  H   -0.020625  -0.000616   0.000860   0.370318  -0.023381  -0.022176
    14  Si   0.005104  -0.000170  -0.000170   0.000259  -0.000111  -0.000003
    15  H   -0.000112   0.000000   0.000000   0.000000   0.000000   0.000000
    16  H   -0.000149   0.000001   0.000000  -0.000001   0.000000   0.000000
    17  H   -0.000149   0.000000   0.000001  -0.000001   0.000000   0.000000
              13         14         15         16         17
     1  C   -0.000566   0.313775  -0.028220  -0.025706  -0.025706
     2  H    0.000636  -0.020892   0.000090  -0.000249   0.000622
     3  H    0.000096  -0.020892   0.000090   0.000622  -0.000249
     4  C    0.000213  -0.040589   0.001309  -0.000234  -0.000234
     5  H    0.000027  -0.002816  -0.000014   0.001541  -0.000029
     6  H    0.000001  -0.002816  -0.000014  -0.000029   0.001541
     7  Si  -0.020625   0.005104  -0.000112  -0.000149  -0.000149
     8  H   -0.000616  -0.000170   0.000000   0.000001   0.000000
     9  H    0.000860  -0.000170   0.000000   0.000000   0.000001
    10  C    0.370318   0.000259   0.000000  -0.000001  -0.000001
    11  H   -0.023381  -0.000111   0.000000   0.000000   0.000000
    12  H   -0.022176  -0.000003   0.000000   0.000000   0.000000
    13  H    0.520424  -0.000111   0.000000   0.000000   0.000000
    14  Si  -0.000111  11.760285   0.364904   0.367149   0.367149
    15  H    0.000000   0.364904   0.912506  -0.023861  -0.023861
    16  H    0.000000   0.367149  -0.023861   0.904563  -0.023910
    17  H    0.000000   0.367149  -0.023861  -0.023910   0.904563
 Mulliken charges:
               1
     1  C   -0.671113
     2  H    0.178702
     3  H    0.178702
     4  C   -0.694551
     5  H    0.182073
     6  H    0.182073
     7  Si   1.068401
     8  H   -0.206615
     9  H   -0.206615
    10  C   -0.845714
    11  H    0.174900
    12  H    0.177207
    13  H    0.174900
    14  Si   0.909945
    15  H   -0.202818
    16  H   -0.199738
    17  H   -0.199738
 Sum of Mulliken charges =   0.00000
 Mulliken charges with hydrogens summed into heavy atoms:
               1
     1  C   -0.313709
     4  C   -0.330405
     7  Si   0.655171
    10  C   -0.318708
    14  Si   0.307651
 Electronic spatial extent (au):  <R**2>=           1178.9922
 Charge=              0.0000 electrons
 Dipole moment (field-independent basis, Debye):
    X=             -0.3832    Y=             -0.0431    Z=              0.0000  Tot=              0.3856
 Quadrupole moment (field-independent basis, Debye-Ang):
   XX=            -52.3870   YY=            -56.1308   ZZ=            -52.0442
   XY=              0.0774   XZ=              0.0000   YZ=              0.0000
 Traceless Quadrupole moment (field-independent basis, Debye-Ang):
   XX=              1.1337   YY=             -2.6102   ZZ=              1.4765
   XY=              0.0774   XZ=              0.0000   YZ=              0.0000
 Octapole moment (field-independent basis, Debye-Ang**2):
  XXX=             -2.0594  YYY=             -7.2810  ZZZ=              0.0000  XYY=             -4.2759
  XXY=             -4.4048  XXZ=              0.0000  XZZ=             -5.2834  YZZ=              1.4049
  YYZ=              0.0000  XYZ=              0.0000
 Hexadecapole moment (field-independent basis, Debye-Ang**3):
 XXXX=           -438.7023 YYYY=          -1319.9730 ZZZZ=           -125.4839 XXXY=           -191.3008
 XXXZ=              0.0000 YYYX=           -157.0843 YYYZ=              0.0000 ZZZX=              0.0000
 ZZZY=              0.0000 XXYY=           -279.9859 XXZZ=            -92.3120 YYZZ=           -251.9592
 XXYZ=              0.0000 YYXZ=              0.0000 ZZXY=            -67.0150
 N-N= 2.830612229643D+02 E-N=-2.224387497803D+03  KE= 6.989624387093D+02
 Symmetry A'   KE= 6.410274812820D+02
 Symmetry A"   KE= 5.793495742733D+01
 Calling FoFJK, ICntrl=      2127 FMM=F ISym2X=1 I1Cent= 0 IOpClX= 0 NMat=1 NMatS=1 NMatT=0.
 ***** Axes restored to original set *****
 -------------------------------------------------------------------
 Center     Atomic                   Forces (Hartrees/Bohr)
 Number     Number              X              Y              Z
 -------------------------------------------------------------------
      1        6          -0.007075568   -0.024890771   -0.008701998
      2        1           0.005912191    0.007904584   -0.004921944
      3        1          -0.004782844    0.009801118   -0.001650597
      4        6           0.005189669    0.020167384    0.005274756
      5        1           0.004688250   -0.010440128   -0.000151309
      6        1          -0.007019899   -0.008363940    0.003429925
      7       14          -0.002712228    0.007622613   -0.013286243
      8        1           0.008984048   -0.003614573    0.005082334
      9        1          -0.005363361   -0.001070370    0.009470852
     10        6          -0.001436730   -0.020973404    0.007462031
     11        1          -0.006869143    0.006385256   -0.002299027
     12        1           0.003338247    0.006792798    0.006975687
     13        1           0.006105403    0.004084500   -0.006267620
     14       14           0.005794142    0.013629929    0.011040995
     15        1          -0.002134633    0.004529017   -0.009604425
     16        1           0.005571546   -0.007002082   -0.003031229
     17        1          -0.008189089   -0.004561930    0.001177810
 -------------------------------------------------------------------
 Cartesian Forces:  Max     0.024890771 RMS     0.008425550

 GradGradGradGradGradGradGradGradGradGradGradGradGradGradGradGradGradGrad
 Berny optimization.
 FormGI is forming the generalized inverse of G from B-inverse, IUseBI=4.
 GSVD:  received Info=                   1 from GESDD.
 Internal  Forces:  Max     0.020276009 RMS     0.005508307
 Search for a local minimum.
 Step number   1 out of a maximum of   92 on scan point     1 out of    19
 All quantities printed in internal units (Hartrees-Bohrs-Radians)
 Mixed Optimization -- RFO/linear search
 Second derivative matrix not updated -- first step.
 ITU=  0
     Eigenvalues ---    0.00237   0.00239   0.00239   0.01591   0.03841
     Eigenvalues ---    0.03841   0.04897   0.04897   0.04897   0.05721
     Eigenvalues ---    0.05721   0.05721   0.05721   0.07655   0.07655
     Eigenvalues ---    0.07656   0.10127   0.11701   0.11701   0.16000
     Eigenvalues ---    0.16000   0.16000   0.16000   0.16000   0.16000
     Eigenvalues ---    0.17593   0.17593   0.17593   0.18253   0.18253
     Eigenvalues ---    0.18253   0.18253   0.18253   0.21948   0.21948
     Eigenvalues ---    0.21948   0.28519   0.37230   0.37230   0.37230
     Eigenvalues ---    0.37230   0.37230   0.37230   0.372301000.00000
     Eigenvalues --- 1000.000001000.000001000.000001000.000001000.00000
     Eigenvalues --- 1000.000001000.000001000.000001000.000001000.00000
     Eigenvalues --- 1000.000001000.000001000.000001000.000001000.00000
     Eigenvalues --- 1000.000001000.000001000.000001000.000001000.00000
     Eigenvalues --- 1000.000001000.000001000.000001000.000001000.00000
     Eigenvalues --- 1000.000001000.000001000.000001000.000001000.00000
     Eigenvalues --- 1000.000001000.000001000.000001000.000001000.00000
     Eigenvalues --- 1000.000001000.00000
 RFO step:  Lambda=-1.21311819D-02 EMin= 2.36824117D-03
 Linear search not attempted -- first point.
 Iteration  1 RMS(Cart)=  0.12877290 RMS(Int)=  0.00296610
 Iteration  2 RMS(Cart)=  0.00398846 RMS(Int)=  0.00051110
 Iteration  3 RMS(Cart)=  0.00001386 RMS(Int)=  0.00051107
 Iteration  4 RMS(Cart)=  0.00000001 RMS(Int)=  0.00051107
 Iteration  1 RMS(Cart)=  0.00000000 RMS(Int)=  0.00000000
 ClnCor:  largest displacement from symmetrization is 3.29D-08 for atom     9.
 Variable       Old X    -DE/DX   Delta X   Delta X   Delta X     New X
                                 (Linear)    (Quad)   (Total)
    R1        2.02201   0.00958   0.00000   0.02492   0.02492   2.04693
    R2        2.02201   0.00958   0.00000   0.02492   0.02492   2.04693
    R3        2.91018   0.01183   0.00000   0.03981   0.03981   2.94998
    R4        3.66607  -0.00312   0.00000  -0.01660  -0.01660   3.64947
    R5        2.02201   0.01046   0.00000   0.02720   0.02720   2.04921
    R6        2.02201   0.01046   0.00000   0.02720   0.02720   2.04921
    R7        3.66607   0.00614   0.00000   0.03266   0.03266   3.69873
    R8        2.77790   0.01070   0.00000   0.05496   0.05496   2.83286
    R9        2.77790   0.01070   0.00000   0.05496   0.05496   2.83286
   R10        3.66607  -0.00466   0.00000  -0.02479  -0.02479   3.64128
   R11        2.02201   0.00915   0.00000   0.02380   0.02380   2.04581
   R12        2.02201   0.01001   0.00000   0.02605   0.02605   2.04805
   R13        2.02201   0.00915   0.00000   0.02380   0.02380   2.04581
   R14        2.77790   0.01037   0.00000   0.05326   0.05326   2.83116
   R15        2.77790   0.00941   0.00000   0.04832   0.04832   2.82622
   R16        2.77790   0.00941   0.00000   0.04832   0.04832   2.82622
    A1        1.91063  -0.00101   0.00000  -0.03436  -0.03543   1.87521
    A2        1.91063   0.00088   0.00000   0.02425   0.02455   1.93518
    A3        1.91063  -0.00351   0.00000  -0.02526  -0.02623   1.88440
    A4        1.91063   0.00088   0.00000   0.02425   0.02455   1.93518
    A5        1.91063  -0.00351   0.00000  -0.02526  -0.02623   1.88440
    A6        1.91063   0.00626   0.00000   0.03637   0.03619   1.94682
    A7        1.91063  -0.00405   0.00000  -0.00011  -0.00009   1.91055
    A8        1.91063  -0.00405   0.00000  -0.00011  -0.00009   1.91055
    A9        1.91063   0.02028   0.00000   0.10290   0.10199   2.01263
   A10        1.91063   0.00103   0.00000  -0.04495  -0.04618   1.86445
   A11        1.91063  -0.00660   0.00000  -0.02887  -0.03071   1.87993
   A12        1.91063  -0.00660   0.00000  -0.02887  -0.03071   1.87993
   A13        1.91063  -0.00251   0.00000   0.00082   0.00086   1.91149
   A14        1.91063  -0.00251   0.00000   0.00082   0.00086   1.91149
   A15        1.91063   0.01293   0.00000   0.06584   0.06547   1.97610
   A16        1.91063   0.00060   0.00000  -0.02956  -0.03008   1.88056
   A17        1.91063  -0.00426   0.00000  -0.01896  -0.01977   1.89086
   A18        1.91063  -0.00426   0.00000  -0.01896  -0.01977   1.89086
   A19        1.91063   0.00331   0.00000   0.02015   0.01996   1.93059
   A20        1.91063   0.00193   0.00000   0.00936   0.00929   1.91992
   A21        1.91063   0.00331   0.00000   0.02015   0.01996   1.93059
   A22        1.91063  -0.00289   0.00000  -0.01866  -0.01872   1.89191
   A23        1.91063  -0.00277   0.00000  -0.01235  -0.01265   1.89798
   A24        1.91063  -0.00289   0.00000  -0.01866  -0.01872   1.89191
   A25        1.91063   0.00603   0.00000   0.03848   0.03830   1.94893
   A26        1.91063   0.00032   0.00000   0.00014   0.00004   1.91067
   A27        1.91063   0.00032   0.00000   0.00014   0.00004   1.91067
   A28        1.91063  -0.00267   0.00000  -0.01208  -0.01225   1.89838
   A29        1.91063  -0.00267   0.00000  -0.01208  -0.01225   1.89838
   A30        1.91063  -0.00132   0.00000  -0.01461  -0.01462   1.89602
    D1       -1.04720  -0.00193   0.00000  -0.03378  -0.03454  -1.08174
    D2        3.14159   0.00177   0.00000   0.02141   0.02168  -3.11992
    D3        1.04720  -0.00008   0.00000  -0.00619  -0.00643   1.04076
    D4        3.14159  -0.00177   0.00000  -0.02141  -0.02168   3.11992
    D5        1.04720   0.00193   0.00000   0.03378   0.03454   1.08174
    D6       -1.04720   0.00008   0.00000   0.00619   0.00643  -1.04076
    D7        1.04720  -0.00185   0.00000  -0.02759  -0.02811   1.01909
    D8       -1.04720   0.00185   0.00000   0.02759   0.02811  -1.01909
    D9        3.14159   0.00000   0.00000   0.00000   0.00000   3.14159
   D10       -1.04720   0.00277   0.00000   0.03651   0.03599  -1.01121
   D11        1.04720   0.00338   0.00000   0.04536   0.04489   1.09209
   D12        3.14159   0.00215   0.00000   0.02765   0.02708  -3.11451
   D13        1.04720  -0.00277   0.00000  -0.03651  -0.03599   1.01121
   D14       -3.14159  -0.00215   0.00000  -0.02765  -0.02708   3.11451
   D15       -1.04720  -0.00338   0.00000  -0.04536  -0.04489  -1.09209
   D16        3.14159   0.00000   0.00000   0.00000   0.00000   3.14159
   D17       -1.04720   0.00061   0.00000   0.00886   0.00890  -1.03829
   D18        1.04720  -0.00061   0.00000  -0.00886  -0.00890   1.03829
   D19       -2.09440  -0.00117   0.00000  -0.01760  -0.01782  -2.11221
   D20        2.09440   0.00117   0.00000   0.01760   0.01782   2.11221
   D21        0.00000   0.00000   0.00000   0.00000   0.00000   0.00000
   D22        0.00000   0.00225   0.00000   0.02761   0.02672   0.02672
   D23       -2.09440   0.00458   0.00000   0.06280   0.06236  -2.03203
   D24        2.09440   0.00341   0.00000   0.04521   0.04454   2.13894
   D25        2.09440  -0.00458   0.00000  -0.06280  -0.06236   2.03203
   D26        0.00000  -0.00225   0.00000  -0.02761  -0.02672  -0.02672
   D27       -2.09440  -0.00341   0.00000  -0.04521  -0.04454  -2.13894
   D28        1.04720   0.00033   0.00000   0.00478   0.00484   1.05204
   D29        3.14159   0.00000   0.00000   0.00000   0.00000   3.14159
   D30       -1.04720  -0.00033   0.00000  -0.00478  -0.00484  -1.05204
   D31        3.14159   0.00257   0.00000   0.03449   0.03427  -3.10732
   D32       -1.04720   0.00224   0.00000   0.02971   0.02943  -1.01777
   D33        1.04720   0.00191   0.00000   0.02494   0.02459   1.07179
   D34       -1.04720  -0.00191   0.00000  -0.02494  -0.02459  -1.07179
   D35        1.04720  -0.00224   0.00000  -0.02971  -0.02943   1.01777
   D36        3.14159  -0.00257   0.00000  -0.03449  -0.03427   3.10732
         Item               Value     Threshold  Converged?
 Maximum Force            0.020276     0.000450     NO 
 RMS     Force            0.005542     0.000300     NO 
 Maximum Displacement     0.412925     0.001800     NO 
 RMS     Displacement     0.130227     0.001200     NO 
 Predicted change in Energy=-6.547648D-03
 GradGradGradGradGradGradGradGradGradGradGradGradGradGradGradGradGradGrad

                          Input orientation:                          
 ---------------------------------------------------------------------
 Center     Atomic      Atomic             Coordinates (Angstroms)
 Number     Number       Type             X           Y           Z
 ---------------------------------------------------------------------
      1          6           0       -2.805157    3.212263    0.318053
      2          1           0       -1.878259    3.698189    0.038706
      3          1           0       -3.524785    3.990165    0.542338
      4          6           0       -2.593916    2.277688    1.550475
      5          1           0       -1.887353    1.495981    1.294324
      6          1           0       -3.529181    1.787124    1.796518
      7         14           0       -1.941662    3.162635    3.169853
      8          1           0       -0.638928    2.548708    3.586056
      9          1           0       -2.922109    2.953581    4.284425
     10          6           0       -1.674418    5.057598    2.944968
     11          1           0       -2.603470    5.544376    2.676793
     12          1           0       -1.314306    5.493519    3.869564
     13          1           0       -0.944201    5.250141    2.169263
     14         14           0       -3.448340    2.229734   -1.215096
     15          1           0       -3.652035    3.124188   -2.399587
     16          1           0       -2.459066    1.168429   -1.578003
     17          1           0       -4.749683    1.574620   -0.877359
 ---------------------------------------------------------------------
                    Distance matrix (angstroms):
                    1          2          3          4          5
     1  C    0.000000
     2  H    1.083189   0.000000
     3  H    1.083189   1.746408   0.000000
     4  C    1.561064   2.194410   2.194410   0.000000
     5  H    2.177405   2.535030   3.076949   1.084394   0.000000
     6  H    2.177405   3.076949   2.535030   1.084394   1.741425
     7  Si   2.980076   3.177250   3.177250   1.957282   2.509640
     8  H    3.976519   3.929496   4.435109   2.835317   2.814043
     9  H    3.976519   4.435109   3.929496   2.835317   3.483679
    10  C    3.403603   3.214950   3.214950   3.243145   3.931295
    11  H    3.323114   3.300581   2.796478   3.455421   4.337459
    12  H    4.476606   4.268105   4.268105   4.166191   4.789630
    13  H    3.323114   2.796478   3.300581   3.455421   3.968472
    14  Si   1.931216   2.488682   2.488682   2.894948   3.045039
    15  H    2.847898   3.069370   3.069370   4.176024   4.405693
    16  H    2.809282   3.057903   3.686977   3.322050   2.946931
    17  H    2.809282   3.686977   3.057903   3.322050   3.593789
                    6          7          8          9         10
     6  H    0.000000
     7  Si   2.509640   0.000000
     8  H    3.483679   1.499083   0.000000
     9  H    2.814043   1.499083   2.421685   0.000000
    10  C    3.931295   1.926883   2.788864   2.788864   0.000000
    11  H    3.968472   2.520673   3.695973   3.065654   1.082593
    12  H    4.789630   2.513204   3.034539   3.034539   1.083783
    13  H    4.337459   2.520673   3.065654   3.695973   1.082593
    14  Si   3.045039   4.729499   5.571858   5.571858   5.333831
    15  H    4.405693   5.826279   6.725914   6.725914   6.017750
    16  H    3.593789   5.175587   5.646731   6.145668   6.016525
    17  H    2.946931   5.175587   6.145668   5.646731   6.016525
                   11         12         13         14         15
    11  H    0.000000
    12  H    1.757052   0.000000
    13  H    1.759925   1.757052   0.000000
    14  Si   5.181454   6.407821   5.181454   0.000000
    15  H    5.720703   7.097955   5.720703   1.498185   0.000000
    16  H    6.105166   7.049316   5.744318   1.495571   2.433756
    17  H    5.744318   7.049316   6.105166   1.495571   2.433756
                   16         17
    16  H    0.000000
    17  H    2.429572   0.000000
 Stoichiometry    C3H12Si2
 Framework group  CS[SG(C3H2Si2),X(H10)]
 Deg. of freedom    26
 Full point group                 CS      NOp   2
 Largest Abelian subgroup         CS      NOp   2
 Largest concise Abelian subgroup CS      NOp   2
                         Standard orientation:                         
 ---------------------------------------------------------------------
 Center     Atomic      Atomic             Coordinates (Angstroms)
 Number     Number       Type             X           Y           Z
 ---------------------------------------------------------------------
      1          6           0        0.840312    0.472311    0.000000
      2          1           0        0.616899    1.073061    0.873204
      3          1           0        0.616899    1.073061   -0.873204
      4          6           0        0.000000   -0.843286    0.000000
      5          1           0        0.257097   -1.436305    0.870713
      6          1           0        0.257097   -1.436305   -0.870713
      7         14           0       -1.941622   -0.596192    0.000000
      8          1           0       -2.530443   -1.255282    1.210843
      9          1           0       -2.530443   -1.255282   -1.210843
     10          6           0       -2.471762    1.256327    0.000000
     11          1           0       -2.093634    1.760999   -0.879962
     12          1           0       -3.552861    1.332565    0.000000
     13          1           0       -2.093634    1.760999    0.879962
     14         14           0        2.735899    0.103066    0.000000
     15          1           0        3.545025    1.363968    0.000000
     16          1           0        3.088413   -0.694908    1.214786
     17          1           0        3.088413   -0.694908   -1.214786
 ---------------------------------------------------------------------
 Rotational constants (GHZ):      7.0737876      1.0651021      0.9629540
 Standard basis: 6-31G (6D, 7F)
 There are    55 symmetry adapted cartesian basis functions of A'  symmetry.
 There are    22 symmetry adapted cartesian basis functions of A"  symmetry.
 There are    55 symmetry adapted basis functions of A'  symmetry.
 There are    22 symmetry adapted basis functions of A"  symmetry.
    77 basis functions,   206 primitive gaussians,    77 cartesian basis functions
    29 alpha electrons       29 beta electrons
       nuclear repulsion energy       277.7879551958 Hartrees.
 NAtoms=   17 NActive=   17 NUniq=   12 SFac= 2.01D+00 NAtFMM=   60 NAOKFM=F Big=F
 Integral buffers will be    131072 words long.
 Raffenetti 1 integral format.
 Two-electron integral symmetry is turned on.
 One-electron integrals computed using PRISM.
 NBasis=    77 RedAO= T EigKep=  1.37D-02  NBF=    55    22
 NBsUse=    77 1.00D-06 EigRej= -1.00D+00 NBFU=    55    22
 Initial guess from the checkpoint file:  "EtOCSMethyl_RHF6-31G_scan_0_180.chk"
 B after Tr=     0.000000    0.000000    0.000000
         Rot=    0.827749    0.000000    0.000000    0.561099 Ang=  68.26 deg.
 Initial guess orbital symmetries:
       Occupied  (A') (A') (A') (A') (A') (A') (A') (A') (A") (A")
                 (A') (A') (A') (A') (A') (A') (A') (A') (A") (A')
                 (A") (A') (A") (A') (A") (A') (A") (A') (A')
       Virtual   (A') (A') (A') (A') (A') (A') (A') (A') (A') (A')
                 (A') (A') (A') (A') (A') (A') (A') (A') (A') (A')
                 (A') (A') (A') (A') (A') (A') (A') (A') (A') (A')
                 (A') (A') (A') (A") (A") (A") (A") (A") (A") (A")
                 (A") (A") (A") (A") (A") (A") (A") (A")
 ExpMin= 7.78D-02 ExpMax= 1.61D+04 ExpMxC= 2.43D+03 IAcc=2 IRadAn=         4 AccDes= 0.00D+00
 Harris functional with IExCor=  205 and IRadAn=       4 diagonalized for initial guess.
 HarFok:  IExCor=  205 AccDes= 0.00D+00 IRadAn=         4 IDoV= 1 UseB2=F ITyADJ=14
 ICtDFT=  3500011 ScaDFX=  1.000000  1.000000  1.000000  1.000000
 FoFCou: FMM=F IPFlag=           0 FMFlag=      100000 FMFlg1=           0
         NFxFlg=           0 DoJE=T BraDBF=F KetDBF=T FulRan=T
         wScrn=  0.000000 ICntrl=     500 IOpCl=  0 I1Cent=   200000004 NGrid=           0
         NMat0=    1 NMatS0=      1 NMatT0=    0 NMatD0=    1 NMtDS0=    0 NMtDT0=    0
 Petite list used in FoFCou.
 Keep R1 ints in memory in symmetry-blocked form, NReq=6895981.
 Requested convergence on RMS density matrix=1.00D-08 within 128 cycles.
 Requested convergence on MAX density matrix=1.00D-06.
 Requested convergence on             energy=1.00D-06.
 No special actions if energy rises.
 SCF Done:  E(RHF) =  -698.281700860     A.U. after   10 cycles
            NFock= 10  Conv=0.35D-08     -V/T= 1.9995
 Calling FoFJK, ICntrl=      2127 FMM=F ISym2X=1 I1Cent= 0 IOpClX= 0 NMat=1 NMatS=1 NMatT=0.
 ***** Axes restored to original set *****
 -------------------------------------------------------------------
 Center     Atomic                   Forces (Hartrees/Bohr)
 Number     Number              X              Y              Z
 -------------------------------------------------------------------
      1        6          -0.000649831   -0.009624528    0.003455235
      2        1           0.001162162    0.001790569    0.000961875
      3        1           0.000183626    0.001964091    0.001261185
      4        6           0.001048630    0.009719016   -0.002206220
      5        1           0.000364316   -0.001011815    0.000286912
      6        1          -0.000446312   -0.000868068    0.000534863
      7       14          -0.001212009    0.002110079   -0.005185729
      8        1          -0.000447869   -0.000741098    0.000212427
      9        1           0.000230221   -0.000861343    0.000005016
     10        6          -0.000853180   -0.005608874    0.000462387
     11        1          -0.000155245    0.001383986   -0.000462485
     12        1           0.000057554    0.000188424    0.000078924
     13        1           0.000305557    0.001302272   -0.000603433
     14       14           0.000790410    0.001155807    0.001914024
     15        1           0.000104719   -0.000499633    0.000632017
     16        1          -0.000387744   -0.000173488   -0.000628729
     17        1          -0.000095004   -0.000225399   -0.000718271
 -------------------------------------------------------------------
 Cartesian Forces:  Max     0.009719016 RMS     0.002415035

 GradGradGradGradGradGradGradGradGradGradGradGradGradGradGradGradGradGrad
 Berny optimization.
 Using GEDIIS/GDIIS optimizer.
 FormGI is forming the generalized inverse of G from B-inverse, IUseBI=4.
 GSVD:  received Info=                   1 from GESDD.
 Internal  Forces:  Max     0.008939605 RMS     0.001414677
 Search for a local minimum.
 Step number   2 out of a maximum of   92 on scan point     1 out of    19
 All quantities printed in internal units (Hartrees-Bohrs-Radians)
 Mixed Optimization -- RFO/linear search
 Update second derivatives using D2CorX and points    1    2
 DE= -5.52D-03 DEPred=-6.55D-03 R= 8.44D-01
 TightC=F SS=  1.41D+00  RLast= 2.89D-01 DXNew= 5.0454D-01 8.6570D-01
 Trust test= 8.44D-01 RLast= 2.89D-01 DXMaxT set to 5.05D-01
 ITU=  1  0
 Use linear search instead of GDIIS.
     Eigenvalues ---    0.00237   0.00239   0.00239   0.01382   0.03320
     Eigenvalues ---    0.03567   0.04668   0.04746   0.04832   0.05455
     Eigenvalues ---    0.05502   0.05590   0.05731   0.08192   0.08432
     Eigenvalues ---    0.08623   0.10820   0.12010   0.12355   0.15291
     Eigenvalues ---    0.16000   0.16000   0.16000   0.16000   0.16064
     Eigenvalues ---    0.17008   0.17593   0.17665   0.18246   0.18253
     Eigenvalues ---    0.18253   0.18253   0.19066   0.21742   0.21967
     Eigenvalues ---    0.22701   0.31692   0.36372   0.37230   0.37230
     Eigenvalues ---    0.37230   0.37230   0.37230   0.373541000.00000
     Eigenvalues --- 1000.000001000.000001000.000001000.000001000.00000
     Eigenvalues --- 1000.000001000.000001000.000001000.000001000.00000
     Eigenvalues --- 1000.000001000.000001000.000001000.000001000.00000
     Eigenvalues --- 1000.000001000.000001000.000001000.000001000.00000
     Eigenvalues --- 1000.000001000.000001000.000001000.000001000.00000
     Eigenvalues --- 1000.000001000.000001000.000001000.000001000.00000
     Eigenvalues --- 1000.000001000.000001000.000001000.000001000.00000
     Eigenvalues --- 1000.000001000.00000
 RFO step:  Lambda=-7.58279115D-04 EMin= 2.36824117D-03
 Quartic linear search produced a step of -0.03662.
 Iteration  1 RMS(Cart)=  0.01368372 RMS(Int)=  0.00007722
 Iteration  2 RMS(Cart)=  0.00008734 RMS(Int)=  0.00003731
 Iteration  3 RMS(Cart)=  0.00000001 RMS(Int)=  0.00003731
 Iteration  1 RMS(Cart)=  0.00000000 RMS(Int)=  0.00000000
 ClnCor:  largest displacement from symmetrization is 1.27D-08 for atom    13.
 Variable       Old X    -DE/DX   Delta X   Delta X   Delta X     New X
                                 (Linear)    (Quad)   (Total)
    R1        2.04693   0.00155  -0.00091   0.00635   0.00544   2.05237
    R2        2.04693   0.00155  -0.00091   0.00635   0.00544   2.05237
    R3        2.94998  -0.00894  -0.00146  -0.02636  -0.02782   2.92217
    R4        3.64947  -0.00122   0.00061  -0.00819  -0.00759   3.64188
    R5        2.04921   0.00090  -0.00100   0.00489   0.00389   2.05310
    R6        2.04921   0.00090  -0.00100   0.00489   0.00389   2.05310
    R7        3.69873  -0.00624  -0.00120  -0.03098  -0.03218   3.66655
    R8        2.83286  -0.00003  -0.00201   0.00498   0.00297   2.83582
    R9        2.83286  -0.00003  -0.00201   0.00498   0.00297   2.83582
   R10        3.64128  -0.00272   0.00091  -0.01711  -0.01621   3.62507
   R11        2.04581   0.00087  -0.00087   0.00449   0.00362   2.04943
   R12        2.04805   0.00016  -0.00095   0.00288   0.00193   2.04998
   R13        2.04581   0.00087  -0.00087   0.00449   0.00362   2.04943
   R14        2.83116  -0.00081  -0.00195   0.00069  -0.00126   2.82990
   R15        2.82622   0.00002  -0.00177   0.00460   0.00283   2.82905
   R16        2.82622   0.00002  -0.00177   0.00460   0.00283   2.82905
    A1        1.87521  -0.00044   0.00130  -0.01682  -0.01558   1.85963
    A2        1.93518  -0.00086  -0.00090  -0.00530  -0.00632   1.92887
    A3        1.88440   0.00049   0.00096   0.00729   0.00831   1.89271
    A4        1.93518  -0.00086  -0.00090  -0.00530  -0.00632   1.92887
    A5        1.88440   0.00049   0.00096   0.00729   0.00831   1.89271
    A6        1.94682   0.00119  -0.00133   0.01238   0.01103   1.95786
    A7        1.91055   0.00080   0.00000   0.00522   0.00522   1.91577
    A8        1.91055   0.00080   0.00000   0.00522   0.00522   1.91577
    A9        2.01263  -0.00161  -0.00373   0.00261  -0.00109   2.01154
   A10        1.86445  -0.00050   0.00169  -0.00747  -0.00575   1.85870
   A11        1.87993   0.00028   0.00112  -0.00334  -0.00215   1.87778
   A12        1.87993   0.00028   0.00112  -0.00334  -0.00215   1.87778
   A13        1.91149  -0.00034  -0.00003  -0.00464  -0.00471   1.90678
   A14        1.91149  -0.00034  -0.00003  -0.00464  -0.00471   1.90678
   A15        1.97610  -0.00038  -0.00240   0.00612   0.00373   1.97983
   A16        1.88056  -0.00047   0.00110  -0.01032  -0.00926   1.87130
   A17        1.89086   0.00077   0.00072   0.00642   0.00718   1.89804
   A18        1.89086   0.00077   0.00072   0.00642   0.00718   1.89804
   A19        1.93059   0.00137  -0.00073   0.01029   0.00953   1.94012
   A20        1.91992  -0.00032  -0.00034  -0.00153  -0.00186   1.91806
   A21        1.93059   0.00137  -0.00073   0.01029   0.00953   1.94012
   A22        1.89191  -0.00058   0.00069  -0.00567  -0.00498   1.88693
   A23        1.89798  -0.00134   0.00046  -0.00840  -0.00798   1.89000
   A24        1.89191  -0.00058   0.00069  -0.00567  -0.00498   1.88693
   A25        1.94893  -0.00055  -0.00140  -0.00111  -0.00250   1.94643
   A26        1.91067   0.00133   0.00000   0.00863   0.00861   1.91928
   A27        1.91067   0.00133   0.00000   0.00863   0.00861   1.91928
   A28        1.89838  -0.00058   0.00045  -0.00599  -0.00553   1.89285
   A29        1.89838  -0.00058   0.00045  -0.00599  -0.00553   1.89285
   A30        1.89602  -0.00099   0.00054  -0.00448  -0.00400   1.89201
    D1       -1.08174  -0.00068   0.00126  -0.01549  -0.01415  -1.09589
    D2       -3.11992  -0.00099  -0.00079  -0.01248  -0.01324  -3.13316
    D3        1.04076  -0.00084   0.00024  -0.01398  -0.01369   1.02707
    D4        3.11992   0.00099   0.00079   0.01248   0.01324   3.13316
    D5        1.08174   0.00068  -0.00126   0.01549   0.01415   1.09589
    D6       -1.04076   0.00084  -0.00024   0.01398   0.01369  -1.02707
    D7        1.01909   0.00016   0.00103  -0.00150  -0.00045   1.01863
    D8       -1.01909  -0.00016  -0.00103   0.00150   0.00045  -1.01863
    D9        3.14159   0.00000   0.00000   0.00000   0.00000   3.14159
   D10       -1.01121   0.00001  -0.00132   0.00608   0.00481  -1.00640
   D11        1.09209  -0.00019  -0.00164   0.00363   0.00201   1.09410
   D12       -3.11451   0.00020  -0.00099   0.00853   0.00761  -3.10690
   D13        1.01121  -0.00001   0.00132  -0.00608  -0.00481   1.00640
   D14        3.11451  -0.00020   0.00099  -0.00853  -0.00761   3.10690
   D15       -1.09209   0.00019   0.00164  -0.00363  -0.00201  -1.09410
   D16        3.14159   0.00000   0.00000   0.00000   0.00000   3.14159
   D17       -1.03829  -0.00020  -0.00033  -0.00245  -0.00280  -1.04109
   D18        1.03829   0.00020   0.00033   0.00245   0.00280   1.04109
   D19       -2.11221  -0.00049   0.00065  -0.00900  -0.00832  -2.12054
   D20        2.11221   0.00049  -0.00065   0.00900   0.00832   2.12054
   D21        0.00000   0.00000   0.00000   0.00000   0.00000   0.00000
   D22        0.02672  -0.00033  -0.00098  -0.00299  -0.00392   0.02280
   D23       -2.03203   0.00064  -0.00228   0.01501   0.01272  -2.01931
   D24        2.13894   0.00015  -0.00163   0.00601   0.00440   2.14334
   D25        2.03203  -0.00064   0.00228  -0.01501  -0.01272   2.01931
   D26       -0.02672   0.00033   0.00098   0.00299   0.00392  -0.02280
   D27       -2.13894  -0.00015   0.00163  -0.00601  -0.00440  -2.14334
   D28        1.05204   0.00006  -0.00018   0.00151   0.00134   1.05338
   D29        3.14159   0.00000   0.00000   0.00000   0.00000  -3.14159
   D30       -1.05204  -0.00006   0.00018  -0.00151  -0.00134  -1.05338
   D31       -3.10732  -0.00007  -0.00125   0.00417   0.00294  -3.10438
   D32       -1.01777  -0.00014  -0.00108   0.00266   0.00160  -1.01617
   D33        1.07179  -0.00020  -0.00090   0.00115   0.00025   1.07204
   D34       -1.07179   0.00020   0.00090  -0.00115  -0.00025  -1.07204
   D35        1.01777   0.00014   0.00108  -0.00266  -0.00160   1.01617
   D36        3.10732   0.00007   0.00125  -0.00417  -0.00294   3.10438
         Item               Value     Threshold  Converged?
 Maximum Force            0.008940     0.000450     NO 
 RMS     Force            0.001423     0.000300     NO 
 Maximum Displacement     0.045045     0.001800     NO 
 RMS     Displacement     0.013697     0.001200     NO 
 Predicted change in Energy=-3.935827D-04
 GradGradGradGradGradGradGradGradGradGradGradGradGradGradGradGradGradGrad

                          Input orientation:                          
 ---------------------------------------------------------------------
 Center     Atomic      Atomic             Coordinates (Angstroms)
 Number     Number       Type             X           Y           Z
 ---------------------------------------------------------------------
      1          6           0       -2.802926    3.202026    0.331282
      2          1           0       -1.874118    3.696637    0.062543
      3          1           0       -3.515533    3.987707    0.564612
      4          6           0       -2.591921    2.280788    1.555202
      5          1           0       -1.884178    1.495060    1.305972
      6          1           0       -3.525607    1.786132    1.808045
      7         14           0       -1.945275    3.166215    3.155967
      8          1           0       -0.646154    2.543136    3.575509
      9          1           0       -2.923980    2.947059    4.272239
     10          6           0       -1.679852    5.052597    2.930102
     11          1           0       -2.606118    5.548961    2.662114
     12          1           0       -1.319424    5.488176    3.855930
     13          1           0       -0.948678    5.255050    2.155144
     14         14           0       -3.444952    2.233452   -1.206174
     15          1           0       -3.644077    3.138986   -2.382152
     16          1           0       -2.462233    1.170472   -1.587690
     17          1           0       -4.751844    1.576485   -0.887355
 ---------------------------------------------------------------------
                    Distance matrix (angstroms):
                    1          2          3          4          5
     1  C    0.000000
     2  H    1.086069   0.000000
     3  H    1.086069   1.740988   0.000000
     4  C    1.546345   2.178968   2.178968   0.000000
     5  H    2.169758   2.528469   3.069889   1.086454   0.000000
     6  H    2.169758   3.069889   2.528469   1.086454   1.741002
     7  Si   2.952235   3.139376   3.139376   1.940253   2.493787
     8  H    3.951051   3.896073   4.402910   2.817175   2.789617
     9  H    3.951051   4.402910   3.896073   2.817175   3.462402
    10  C    3.382273   3.177933   3.177933   3.225701   3.916071
    11  H    3.313550   3.274858   2.768405   3.450567   4.335254
    12  H    4.455379   4.231676   4.231676   4.147281   4.771394
    13  H    3.313550   2.768405   3.274858   3.450567   3.966582
    14  Si   1.927201   2.493607   2.493607   2.890519   3.048297
    15  H    2.841520   3.069245   3.069245   4.164888   4.404770
    16  H    2.815269   3.074193   3.698467   3.335775   2.968634
    17  H    2.815269   3.698467   3.074193   3.335775   3.611208
                    6          7          8          9         10
     6  H    0.000000
     7  Si   2.493787   0.000000
     8  H    3.462402   1.500652   0.000000
     9  H    2.789617   1.500652   2.416005   0.000000
    10  C    3.916071   1.918307   2.789709   2.789709   0.000000
    11  H    3.966582   2.521524   3.702801   3.076269   1.084511
    12  H    4.771394   2.504623   3.034005   3.034005   1.084802
    13  H    4.335254   2.521524   3.076269   3.702801   1.084511
    14  Si   3.048297   4.706098   5.549204   5.549204   5.307724
    15  H    4.404770   5.792878   6.695991   6.695991   5.978304
    16  H    3.611208   5.172284   5.642780   6.140704   6.007783
    17  H    2.968634   5.172284   6.140704   5.642780   6.007783
                   11         12         13         14         15
    11  H    0.000000
    12  H    1.756267   0.000000
    13  H    1.757985   1.756267   0.000000
    14  Si   5.163322   6.382476   5.163322   0.000000
    15  H    5.685943   7.059488   5.685943   1.497521   0.000000
    16  H    6.103499   7.041419   5.743120   1.497070   2.429604
    17  H    5.743120   7.041419   6.103499   1.497070   2.429604
                   16         17
    16  H    0.000000
    17  H    2.428505   0.000000
 Stoichiometry    C3H12Si2
 Framework group  CS[SG(C3H2Si2),X(H10)]
 Deg. of freedom    26
 Full point group                 CS      NOp   2
 Largest Abelian subgroup         CS      NOp   2
 Largest concise Abelian subgroup CS      NOp   2
                         Standard orientation:                         
 ---------------------------------------------------------------------
 Center     Atomic      Atomic             Coordinates (Angstroms)
 Number     Number       Type             X           Y           Z
 ---------------------------------------------------------------------
      1          6           0        0.827242    0.463505    0.000000
      2          1           0        0.586278    1.066599    0.870494
      3          1           0        0.586278    1.066599   -0.870494
      4          6           0        0.000000   -0.842961    0.000000
      5          1           0        0.256556   -1.440280    0.870501
      6          1           0        0.256556   -1.440280   -0.870501
      7         14           0       -1.925422   -0.603517    0.000000
      8          1           0       -2.507751   -1.277001    1.208003
      9          1           0       -2.507751   -1.277001   -1.208003
     10          6           0       -2.465342    1.237240    0.000000
     11          1           0       -2.095488    1.753712   -0.878992
     12          1           0       -3.548062    1.304407    0.000000
     13          1           0       -2.095488    1.753712    0.878992
     14         14           0        2.724196    0.123402    0.000000
     15          1           0        3.510809    1.397689    0.000000
     16          1           0        3.101917   -0.666621    1.214252
     17          1           0        3.101917   -0.666621   -1.214252
 ---------------------------------------------------------------------
 Rotational constants (GHZ):      7.1126534      1.0754311      0.9720056
 Standard basis: 6-31G (6D, 7F)
 There are    55 symmetry adapted cartesian basis functions of A'  symmetry.
 There are    22 symmetry adapted cartesian basis functions of A"  symmetry.
 There are    55 symmetry adapted basis functions of A'  symmetry.
 There are    22 symmetry adapted basis functions of A"  symmetry.
    77 basis functions,   206 primitive gaussians,    77 cartesian basis functions
    29 alpha electrons       29 beta electrons
       nuclear repulsion energy       278.8115566281 Hartrees.
 NAtoms=   17 NActive=   17 NUniq=   12 SFac= 2.01D+00 NAtFMM=   60 NAOKFM=F Big=F
 Integral buffers will be    131072 words long.
 Raffenetti 1 integral format.
 Two-electron integral symmetry is turned on.
 One-electron integrals computed using PRISM.
 NBasis=    77 RedAO= T EigKep=  1.33D-02  NBF=    55    22
 NBsUse=    77 1.00D-06 EigRej= -1.00D+00 NBFU=    55    22
 Initial guess from the checkpoint file:  "EtOCSMethyl_RHF6-31G_scan_0_180.chk"
 B after Tr=     0.000000    0.000000    0.000000
         Rot=    0.999994    0.000000    0.000000   -0.003398 Ang=  -0.39 deg.
 Initial guess orbital symmetries:
       Occupied  (A') (A') (A') (A') (A') (A') (A') (A') (A") (A')
                 (A") (A') (A') (A') (A') (A') (A') (A') (A") (A')
                 (A") (A') (A") (A') (A") (A') (A") (A') (A')
       Virtual   (A') (A') (A') (A') (A') (A') (A') (A') (A') (A')
                 (A') (A') (A') (A') (A') (A') (A') (A') (A') (A')
                 (A') (A') (A') (A') (A') (A') (A') (A') (A') (A')
                 (A') (A') (A') (A") (A") (A") (A") (A") (A") (A")
                 (A") (A") (A") (A") (A") (A") (A") (A")
 ExpMin= 7.78D-02 ExpMax= 1.61D+04 ExpMxC= 2.43D+03 IAcc=2 IRadAn=         4 AccDes= 0.00D+00
 Harris functional with IExCor=  205 and IRadAn=       4 diagonalized for initial guess.
 HarFok:  IExCor=  205 AccDes= 0.00D+00 IRadAn=         4 IDoV= 1 UseB2=F ITyADJ=14
 ICtDFT=  3500011 ScaDFX=  1.000000  1.000000  1.000000  1.000000
 FoFCou: FMM=F IPFlag=           0 FMFlag=      100000 FMFlg1=           0
         NFxFlg=           0 DoJE=T BraDBF=F KetDBF=T FulRan=T
         wScrn=  0.000000 ICntrl=     500 IOpCl=  0 I1Cent=   200000004 NGrid=           0
         NMat0=    1 NMatS0=      1 NMatT0=    0 NMatD0=    1 NMtDS0=    0 NMtDT0=    0
 Petite list used in FoFCou.
 Keep R1 ints in memory in symmetry-blocked form, NReq=6895981.
 Requested convergence on RMS density matrix=1.00D-08 within 128 cycles.
 Requested convergence on MAX density matrix=1.00D-06.
 Requested convergence on             energy=1.00D-06.
 No special actions if energy rises.
 SCF Done:  E(RHF) =  -698.282130111     A.U. after    9 cycles
            NFock=  9  Conv=0.65D-08     -V/T= 1.9995
 Calling FoFJK, ICntrl=      2127 FMM=F ISym2X=1 I1Cent= 0 IOpClX= 0 NMat=1 NMatS=1 NMatT=0.
 ***** Axes restored to original set *****
 -------------------------------------------------------------------
 Center     Atomic                   Forces (Hartrees/Bohr)
 Number     Number              X              Y              Z
 -------------------------------------------------------------------
      1        6          -0.000029532   -0.001761757    0.000924812
      2        1          -0.000286553    0.000266163   -0.000272039
      3        1           0.000158852    0.000187180   -0.000408278
      4        6           0.000031432    0.001236932   -0.000614339
      5        1          -0.000489353   -0.000149863    0.000250193
      6        1           0.000469408   -0.000319879   -0.000043069
      7       14           0.000012218    0.000082536   -0.000007905
      8        1          -0.000467121    0.000171581    0.000081359
      9        1           0.000461644    0.000006884   -0.000202727
     10        6          -0.000140742   -0.000686686   -0.000062028
     11        1           0.000455400    0.000109189    0.000065761
     12        1          -0.000105474   -0.000013076   -0.000337246
     13        1          -0.000284016    0.000240308    0.000291929
     14       14           0.000074044    0.000397491    0.000011630
     15        1           0.000100945   -0.000193987    0.000442483
     16        1          -0.000418116    0.000291079    0.000073565
     17        1           0.000456963    0.000135903   -0.000194100
 -------------------------------------------------------------------
 Cartesian Forces:  Max     0.001761757 RMS     0.000431402

 GradGradGradGradGradGradGradGradGradGradGradGradGradGradGradGradGradGrad
 Berny optimization.
 Using GEDIIS/GDIIS optimizer.
 FormGI is forming the generalized inverse of G from B-inverse, IUseBI=4.
 GSVD:  received Info=                   1 from GESDD.
 Internal  Forces:  Max     0.000934515 RMS     0.000270197
 Search for a local minimum.
 Step number   3 out of a maximum of   92 on scan point     1 out of    19
 All quantities printed in internal units (Hartrees-Bohrs-Radians)
 Mixed Optimization -- En-DIIS/RFO-DIIS
 Update second derivatives using D2CorX and points    1    2    3
 DE= -4.29D-04 DEPred=-3.94D-04 R= 1.09D+00
 TightC=F SS=  1.41D+00  RLast= 7.49D-02 DXNew= 8.4853D-01 2.2474D-01
 Trust test= 1.09D+00 RLast= 7.49D-02 DXMaxT set to 5.05D-01
 ITU=  1  1  0
 Use linear search instead of GDIIS.
     Eigenvalues ---    0.00237   0.00239   0.00239   0.01376   0.03296
     Eigenvalues ---    0.03472   0.04309   0.04734   0.04796   0.05405
     Eigenvalues ---    0.05442   0.05562   0.05644   0.08273   0.08569
     Eigenvalues ---    0.08769   0.10839   0.12115   0.12372   0.14707
     Eigenvalues ---    0.16000   0.16000   0.16000   0.16025   0.16053
     Eigenvalues ---    0.17106   0.17600   0.18211   0.18250   0.18253
     Eigenvalues ---    0.18253   0.18474   0.18852   0.21609   0.21968
     Eigenvalues ---    0.22669   0.30650   0.36928   0.37230   0.37230
     Eigenvalues ---    0.37230   0.37230   0.37255   0.373701000.00000
     Eigenvalues --- 1000.000001000.000001000.000001000.000001000.00000
     Eigenvalues --- 1000.000001000.000001000.000001000.000001000.00000
     Eigenvalues --- 1000.000001000.000001000.000001000.000001000.00000
     Eigenvalues --- 1000.000001000.000001000.000001000.000001000.00000
     Eigenvalues --- 1000.000001000.000001000.000001000.000001000.00000
     Eigenvalues --- 1000.000001000.000001000.000001000.000001000.00000
     Eigenvalues --- 1000.000001000.000001000.000001000.000001000.00000
     Eigenvalues --- 1000.000001000.00000
 RFO step:  Lambda=-3.94392268D-05 EMin= 2.36824117D-03
 Quartic linear search produced a step of  0.10022.
 Iteration  1 RMS(Cart)=  0.00472096 RMS(Int)=  0.00001243
 Iteration  2 RMS(Cart)=  0.00001908 RMS(Int)=  0.00000483
 Iteration  3 RMS(Cart)=  0.00000000 RMS(Int)=  0.00000483
 Iteration  1 RMS(Cart)=  0.00000000 RMS(Int)=  0.00000000
 ClnCor:  largest displacement from symmetrization is 1.16D-08 for atom    13.
 Variable       Old X    -DE/DX   Delta X   Delta X   Delta X     New X
                                 (Linear)    (Quad)   (Total)
    R1        2.05237  -0.00006   0.00055  -0.00030   0.00025   2.05262
    R2        2.05237  -0.00006   0.00055  -0.00030   0.00025   2.05262
    R3        2.92217  -0.00087  -0.00279  -0.00155  -0.00434   2.91783
    R4        3.64188  -0.00065  -0.00076  -0.00378  -0.00454   3.63734
    R5        2.05310  -0.00027   0.00039  -0.00082  -0.00043   2.05267
    R6        2.05310  -0.00027   0.00039  -0.00082  -0.00043   2.05267
    R7        3.66655  -0.00020  -0.00322   0.00075  -0.00247   3.66407
    R8        2.83582  -0.00045   0.00030  -0.00254  -0.00224   2.83358
    R9        2.83582  -0.00045   0.00030  -0.00254  -0.00224   2.83358
   R10        3.62507  -0.00035  -0.00162  -0.00144  -0.00306   3.62201
   R11        2.04943  -0.00036   0.00036  -0.00109  -0.00073   2.04870
   R12        2.04998  -0.00033   0.00019  -0.00090  -0.00071   2.04927
   R13        2.04943  -0.00036   0.00036  -0.00109  -0.00073   2.04870
   R14        2.82990  -0.00048  -0.00013  -0.00247  -0.00259   2.82731
   R15        2.82905  -0.00050   0.00028  -0.00286  -0.00258   2.82648
   R16        2.82905  -0.00050   0.00028  -0.00286  -0.00258   2.82648
    A1        1.85963  -0.00003  -0.00156  -0.00379  -0.00537   1.85426
    A2        1.92887  -0.00002  -0.00063   0.00271   0.00207   1.93094
    A3        1.89271  -0.00046   0.00083  -0.00393  -0.00312   1.88959
    A4        1.92887  -0.00002  -0.00063   0.00271   0.00207   1.93094
    A5        1.89271  -0.00046   0.00083  -0.00393  -0.00312   1.88959
    A6        1.95786   0.00093   0.00111   0.00553   0.00662   1.96448
    A7        1.91577   0.00022   0.00052   0.00186   0.00239   1.91816
    A8        1.91577   0.00022   0.00052   0.00186   0.00239   1.91816
    A9        2.01154  -0.00030  -0.00011   0.00028   0.00017   2.01171
   A10        1.85870  -0.00031  -0.00058  -0.00536  -0.00593   1.85277
   A11        1.87778   0.00008  -0.00022   0.00039   0.00017   1.87795
   A12        1.87778   0.00008  -0.00022   0.00039   0.00017   1.87795
   A13        1.90678   0.00011  -0.00047   0.00154   0.00107   1.90785
   A14        1.90678   0.00011  -0.00047   0.00154   0.00107   1.90785
   A15        1.97983  -0.00010   0.00037   0.00041   0.00078   1.98061
   A16        1.87130  -0.00017  -0.00093  -0.00295  -0.00389   1.86741
   A17        1.89804   0.00002   0.00072  -0.00039   0.00033   1.89837
   A18        1.89804   0.00002   0.00072  -0.00039   0.00033   1.89837
   A19        1.94012   0.00035   0.00096   0.00208   0.00302   1.94315
   A20        1.91806   0.00004  -0.00019   0.00027   0.00009   1.91815
   A21        1.94012   0.00035   0.00096   0.00208   0.00302   1.94315
   A22        1.88693  -0.00022  -0.00050  -0.00152  -0.00202   1.88491
   A23        1.89000  -0.00034  -0.00080  -0.00161  -0.00242   1.88758
   A24        1.88693  -0.00022  -0.00050  -0.00152  -0.00202   1.88491
   A25        1.94643  -0.00032  -0.00025  -0.00192  -0.00217   1.94426
   A26        1.91928   0.00023   0.00086   0.00115   0.00201   1.92129
   A27        1.91928   0.00023   0.00086   0.00115   0.00201   1.92129
   A28        1.89285   0.00003  -0.00055   0.00030  -0.00025   1.89260
   A29        1.89285   0.00003  -0.00055   0.00030  -0.00025   1.89260
   A30        1.89201  -0.00020  -0.00040  -0.00099  -0.00141   1.89061
    D1       -1.09589  -0.00009  -0.00142  -0.00282  -0.00424  -1.10012
    D2       -3.13316   0.00003  -0.00133   0.00150   0.00017  -3.13298
    D3        1.02707  -0.00003  -0.00137  -0.00066  -0.00203   1.02504
    D4        3.13316  -0.00003   0.00133  -0.00150  -0.00017   3.13298
    D5        1.09589   0.00009   0.00142   0.00282   0.00424   1.10012
    D6       -1.02707   0.00003   0.00137   0.00066   0.00203  -1.02504
    D7        1.01863  -0.00006  -0.00005  -0.00216  -0.00220   1.01643
    D8       -1.01863   0.00006   0.00005   0.00216   0.00220  -1.01643
    D9        3.14159   0.00000   0.00000   0.00000   0.00000  -3.14159
   D10       -1.00640   0.00026   0.00048   0.00430   0.00478  -1.00162
   D11        1.09410   0.00025   0.00020   0.00420   0.00440   1.09850
   D12       -3.10690   0.00028   0.00076   0.00441   0.00517  -3.10173
   D13        1.00640  -0.00026  -0.00048  -0.00430  -0.00478   1.00162
   D14        3.10690  -0.00028  -0.00076  -0.00441  -0.00517   3.10173
   D15       -1.09410  -0.00025  -0.00020  -0.00420  -0.00440  -1.09850
   D16        3.14159   0.00000   0.00000   0.00000   0.00000   3.14159
   D17       -1.04109  -0.00002  -0.00028  -0.00010  -0.00039  -1.04148
   D18        1.04109   0.00002   0.00028   0.00010   0.00039   1.04148
   D19       -2.12054  -0.00004  -0.00083  -0.00090  -0.00173  -2.12227
   D20        2.12054   0.00004   0.00083   0.00090   0.00173   2.12227
   D21        0.00000   0.00000   0.00000   0.00000   0.00000   0.00000
   D22        0.02280   0.00010  -0.00039   0.00201   0.00162   0.02443
   D23       -2.01931   0.00018   0.00128   0.00381   0.00508  -2.01423
   D24        2.14334   0.00014   0.00044   0.00291   0.00335   2.14669
   D25        2.01931  -0.00018  -0.00128  -0.00381  -0.00508   2.01423
   D26       -0.02280  -0.00010   0.00039  -0.00201  -0.00162  -0.02443
   D27       -2.14334  -0.00014  -0.00044  -0.00291  -0.00335  -2.14669
   D28        1.05338   0.00002   0.00013   0.00039   0.00053   1.05391
   D29        3.14159   0.00000   0.00000   0.00000   0.00000   3.14159
   D30       -1.05338  -0.00002  -0.00013  -0.00039  -0.00053  -1.05391
   D31       -3.10438   0.00011   0.00029   0.00236   0.00266  -3.10172
   D32       -1.01617   0.00009   0.00016   0.00197   0.00213  -1.01404
   D33        1.07204   0.00007   0.00003   0.00158   0.00160   1.07364
   D34       -1.07204  -0.00007  -0.00003  -0.00158  -0.00160  -1.07364
   D35        1.01617  -0.00009  -0.00016  -0.00197  -0.00213   1.01404
   D36        3.10438  -0.00011  -0.00029  -0.00236  -0.00266   3.10172
         Item               Value     Threshold  Converged?
 Maximum Force            0.000935     0.000450     NO 
 RMS     Force            0.000272     0.000300     YES
 Maximum Displacement     0.016494     0.001800     NO 
 RMS     Displacement     0.004716     0.001200     NO 
 Predicted change in Energy=-2.365722D-05
 GradGradGradGradGradGradGradGradGradGradGradGradGradGradGradGradGradGrad

                          Input orientation:                          
 ---------------------------------------------------------------------
 Center     Atomic      Atomic             Coordinates (Angstroms)
 Number     Number       Type             X           Y           Z
 ---------------------------------------------------------------------
      1          6           0       -2.803278    3.195866    0.333702
      2          1           0       -1.876322    3.693180    0.063039
      3          1           0       -3.514639    3.983700    0.564160
      4          6           0       -2.591491    2.278828    1.557744
      5          1           0       -1.885394    1.490926    1.311730
      6          1           0       -3.522833    1.781291    1.812582
      7         14           0       -1.945256    3.167318    3.155389
      8          1           0       -0.647763    2.545799    3.578024
      9          1           0       -2.920522    2.948824    4.273205
     10          6           0       -1.680860    5.051916    2.927202
     11          1           0       -2.605591    5.550340    2.659292
[...]
           R15          1.49595   1.49595   1.49597   1.49599
           R16          1.49612   1.49607   1.49604   1.49599
           A1         106.18088 106.25044 106.30373 106.32102
           A2         110.52507 110.48768 110.42026 110.33729
           A3         108.13836 108.13061 108.16446 108.22271
           A4         110.21519 110.21891 110.26385 110.33529
           A5         108.41899 108.37450 108.30120 108.22874
           A6         113.09426 113.11358 113.12461 113.13354
           A7         110.45305 110.47689 110.41208 110.29246
           A8         109.84050 109.95646 110.12483 110.28439
           A9         113.74005 113.47922 113.25178 113.19188
           A10        106.22078 106.24224 106.26335 106.27119
           A11        108.41563 108.42550 108.38275 108.27766
           A12        107.86393 107.97236 108.13538 108.25714
           A13        108.69069 108.62586 108.66114 108.88146
           A14        109.78383 109.49485 109.18598 108.85207
           A15        111.93496 111.98050 112.01191 112.05682
           A16        107.38233 107.42811 107.47041 107.48143
           A17        108.99258 109.16212 109.44003 109.72048
           A18        109.93627 110.03039 109.95542 109.73301
           A19        111.16860 111.13286 111.01796 110.87408
           A20        110.78503 110.78856 110.78660 110.78775
           A21        110.54003 110.58765 110.72408 110.86680
           A22        108.01797 108.01373 108.01561 108.03107
           A23        108.12489 108.13057 108.13125 108.13394
           A24        108.08961 108.07208 108.04919 108.03112
           A25        111.24353 111.24591 111.24462 111.24763
           A26        110.23902 110.22528 110.21159 110.18399
           A27        110.16997 110.16797 110.17635 110.19334
           A28        108.44680 108.44875 108.45668 108.45764
           A29        108.45049 108.45721 108.45421 108.45705
           A30        108.20908 108.21421 108.21614 108.22020
           D1         -63.96079 -63.77949 -63.36442 -62.86972
           D2         179.19821 179.26928 179.59562-179.94365
           D3          58.20397  58.22965  58.38023  58.60950
           D4         178.97740 179.09369 179.45687 179.93727
           D5          62.13639  62.14246  62.41691  62.86334
           D6         -58.85785 -58.89717 -58.79848 -58.58351
           D7          57.43983  57.59739  58.01482  58.53062
           D8         -59.40118 -59.35384 -59.02513 -58.54332
           D9         179.60458 179.60653 179.75948-179.99016
           D10        -57.50017 -57.51685 -57.46682 -57.41210
           D11         62.84218  62.82037  62.87038  62.90992
           D12       -177.80119-177.82655-177.77748-177.73960
           D13         57.21905  57.25707  57.34935  57.41708
           D14        177.56141 177.59428 177.68656 177.73910
           D15        -63.08197 -63.05264 -62.96130 -62.91041
           D16        179.76270 179.78639 179.89067-179.99662
           D17        -59.89495 -59.87639 -59.77212 -59.67460
           D18         59.46168  59.47669  59.58002  59.67588
           D19         29.56172  39.36456  48.97319  58.44215
           D20        -87.62225 -77.67478 -67.96461 -58.44630
           D21        150.00015 160.00012 170.00006-179.99990
           D22        152.84526 162.50764 171.84779-178.95220
           D23         35.66130  45.46830  54.91000  64.15936
           D24        -86.71630 -76.85680 -67.12534 -57.39425
           D25        -92.53202 -82.78366 -73.35645 -64.13845
           D26        150.28401 160.17700 169.70575 178.97310
           D27         27.90641  37.85190  47.67042  57.41950
           D28         59.50517  59.54571  59.77638  60.04325
           D29        179.62249 179.63634 179.79205 179.98431
           D30        -60.58358 -60.55831 -60.34335 -60.07935
           D31        179.76767 179.86943-179.64792-178.88176
           D32        -60.11501 -60.03994 -59.63225 -58.94070
           D33         59.67892  59.76541  60.23234  60.99564
           D34        -62.78545 -62.47352 -61.81803 -61.00315
           D35         57.33187  57.61711  58.19765  58.93790
           D36        177.12581 177.42246 178.06224 178.87424
                          Input orientation:                          
 ---------------------------------------------------------------------
 Center     Atomic      Atomic             Coordinates (Angstroms)
 Number     Number       Type             X           Y           Z
 ---------------------------------------------------------------------
      1          6           0       -2.142249    2.519863    0.023528
      2          1           0       -1.513415    1.691894    0.339861
      3          1           0       -1.487060    3.226236   -0.479221
      4          6           0       -2.809805    3.184200    1.246436
      5          1           0       -3.466062    2.477146    1.748309
      6          1           0       -3.439554    4.011873    0.928867
      7         14           0       -1.542232    3.850070    2.533676
      8          1           0       -0.646147    4.846253    1.861562
      9          1           0       -0.682771    2.713753    2.999636
     10          6           0       -2.404944    4.667286    4.036689
     11          1           0       -3.043879    3.956295    4.549192
     12          1           0       -1.673219    5.034246    4.747729
     13          1           0       -3.017074    5.505554    3.722051
     14         14           0       -3.410722    1.855187   -1.262149
     15          1           0       -2.719654    1.220987   -2.427680
     16          1           0       -4.302310    0.835086   -0.627765
     17          1           0       -4.265775    2.973010   -1.769429
 ---------------------------------------------------------------------
                    Distance matrix (angstroms):
                    1          2          3          4          5
     1  C    0.000000
     2  H    1.086752   0.000000
     3  H    1.086734   1.739481   0.000000
     4  C    1.543529   2.174737   2.174698   0.000000
     5  H    2.174667   2.532425   3.072373   1.087417   0.000000
     6  H    2.174565   3.072335   2.532226   1.087417   1.739993
     7  Si   2.903501   3.077561   3.077297   1.925385   2.490551
     8  H    3.320960   3.608006   2.968308   2.796822   3.684754
     9  H    3.320375   2.967924   3.607210   2.796302   3.060803
    10  C    4.559155   4.828490   4.828310   3.185744   3.340564
    11  H    4.833002   5.018794   5.314283   3.399870   3.195476
    12  H    5.372168   5.534091   5.533946   4.119896   4.330077
    13  H    4.833088   5.314527   5.018657   3.400046   3.642595
    14  Si   1.924521   2.488548   2.488620   2.901789   3.074533
    15  H    2.833530   3.055494   3.055619   4.166709   4.424245
    16  H    2.815763   3.073817   3.696660   3.355375   3.006892
    17  H    2.815919   3.696734   3.074088   3.355577   3.641415
                    6          7          8          9         10
     6  H    0.000000
     7  Si   2.490265   0.000000
     8  H    3.060920   1.499028   0.000000
     9  H    3.684162   1.499003   2.417459   0.000000
    10  C    3.340440   1.916027   2.802958   2.803149   0.000000
    11  H    3.642307   2.515657   3.710054   3.085428   1.084622
    12  H    4.329999   2.514251   3.069231   3.069447   1.084278
    13  H    3.195535   2.515555   3.085027   3.710122   1.084617
    14  Si   3.074521   4.677510   5.132925   5.132413   6.082530
    15  H    4.424218   5.737025   5.986616   5.986067   7.332399
    16  H    3.641349   5.167482   5.971074   5.457883   6.327945
    17  H    3.007105   5.167556   5.458465   5.970688   6.328054
                   11         12         13         14         15
    11  H    0.000000
    12  H    1.755023   0.000000
    13  H    1.756441   1.755019   0.000000
    14  Si   6.190388   7.017405   6.190507   0.000000
    15  H    7.500918   8.192830   7.501010   1.496077   0.000000
    16  H    6.174664   7.310335   6.510453   1.495987   2.427635
    17  H    6.510365   7.310499   6.174899   1.495987   2.427626
                   16         17
    16  H    0.000000
    17  H    2.423933   0.000000
 Stoichiometry    C3H12Si2
 Framework group  C1[X(C3H12Si2)]
 Deg. of freedom    45
 Full point group                 C1      NOp   1
 Largest Abelian subgroup         C1      NOp   1
 Largest concise Abelian subgroup C1      NOp   1
                         Standard orientation:                         
 ---------------------------------------------------------------------
 Center     Atomic      Atomic             Coordinates (Angstroms)
 Number     Number       Type             X           Y           Z
 ---------------------------------------------------------------------
      1          6           0        1.129969   -0.633535   -0.000090
      2          1           0        1.079556   -1.283094   -0.869896
      3          1           0        1.079355   -1.283222    0.869586
      4          6           0       -0.054680    0.355952   -0.000117
      5          1           0       -0.002744    1.006404   -0.869997
      6          1           0       -0.002848    1.006102    0.869995
      7         14           0       -1.771163   -0.516284    0.000039
      8          1           0       -1.867291   -1.397717    1.208724
      9          1           0       -1.866737   -1.397614   -1.208734
     10          6           0       -3.217083    0.740885   -0.000001
     11          1           0       -3.176732    1.376275   -0.878099
     12          1           0       -4.172602    0.228398   -0.000190
     13          1           0       -3.176899    1.375939    0.878342
     14         14           0        2.844793    0.240057    0.000058
     15          1           0        3.960840   -0.756279   -0.000002
     16          1           0        2.982982    1.106123   -1.211887
     17          1           0        2.983067    1.106050    1.212046
 ---------------------------------------------------------------------
 Rotational constants (GHZ):     10.3825595      0.9269024      0.8821589

 **********************************************************************

            Population analysis using the SCF density.

 **********************************************************************

 Orbital symmetries:
       Occupied  (A) (A) (A) (A) (A) (A) (A) (A) (A) (A) (A) (A)
                 (A) (A) (A) (A) (A) (A) (A) (A) (A) (A) (A) (A)
                 (A) (A) (A) (A) (A)
       Virtual   (A) (A) (A) (A) (A) (A) (A) (A) (A) (A) (A) (A)
                 (A) (A) (A) (A) (A) (A) (A) (A) (A) (A) (A) (A)
                 (A) (A) (A) (A) (A) (A) (A) (A) (A) (A) (A) (A)
                 (A) (A) (A) (A) (A) (A) (A) (A) (A) (A) (A) (A)
 The electronic state is 1-A.
 Alpha  occ. eigenvalues --  -68.77509 -68.77370 -11.22739 -11.22437 -11.21039
 Alpha  occ. eigenvalues --   -6.14012  -6.13905  -4.24523  -4.24516  -4.24447
 Alpha  occ. eigenvalues --   -4.24435  -4.24405  -4.24338  -1.02730  -0.94966
 Alpha  occ. eigenvalues --   -0.85183  -0.71415  -0.68514  -0.62040  -0.56232
 Alpha  occ. eigenvalues --   -0.56205  -0.52594  -0.50858  -0.49981  -0.46219
 Alpha  occ. eigenvalues --   -0.46192  -0.45169  -0.44063  -0.38285
 Alpha virt. eigenvalues --    0.14870   0.17323   0.18538   0.19566   0.20932
 Alpha virt. eigenvalues --    0.23034   0.25801   0.27156   0.27981   0.28298
 Alpha virt. eigenvalues --    0.30507   0.30621   0.31151   0.32354   0.32619
 Alpha virt. eigenvalues --    0.36227   0.39742   0.40737   0.42656   0.42931
 Alpha virt. eigenvalues --    0.45119   0.50982   0.52911   0.63929   0.73679
 Alpha virt. eigenvalues --    0.76707   0.85541   0.87118   0.90394   0.98292
 Alpha virt. eigenvalues --    1.03557   1.05367   1.08086   1.19637   1.21462
 Alpha virt. eigenvalues --    1.22005   1.22376   1.24896   1.25154   1.25360
 Alpha virt. eigenvalues --    1.27627   1.28944   1.30151   1.31196   1.33679
 Alpha virt. eigenvalues --    1.38352   1.41698   1.70354
          Condensed to atoms (all electrons):
               1          2          3          4          5          6
     1  C    5.601269   0.379719   0.379724   0.206755  -0.042331  -0.042354
     2  H    0.379719   0.524273  -0.026774  -0.042069  -0.001760   0.003929
     3  H    0.379724  -0.026774   0.524273  -0.042070   0.003927  -0.001760
     4  C    0.206755  -0.042069  -0.042070   5.623862   0.378196   0.378166
     5  H   -0.042331  -0.001760   0.003927   0.378196   0.531790  -0.027852
     6  H   -0.042354   0.003929  -0.001760   0.378166  -0.027852   0.531909
     7  Si  -0.029500  -0.001925  -0.001920   0.303586  -0.019545  -0.019577
     8  H    0.000636  -0.000063   0.001340  -0.030040   0.000749  -0.000930
     9  H    0.000638   0.001342  -0.000064  -0.030089  -0.000930   0.000751
    10  C    0.000966  -0.000011  -0.000011  -0.030797   0.000466   0.000466
    11  H    0.000010  -0.000001   0.000001  -0.000282   0.000372  -0.000068
    12  H   -0.000016   0.000000   0.000000   0.000893  -0.000003  -0.000003
    13  H    0.000010   0.000001  -0.000001  -0.000282  -0.000068   0.000372
    14  Si   0.305018  -0.021006  -0.021000  -0.031837  -0.002263  -0.002267
    15  H   -0.025043  -0.000012  -0.000012   0.000874  -0.000014  -0.000014
    16  H   -0.025651  -0.000577   0.000691   0.000170   0.001259  -0.000035
    17  H   -0.025640   0.000691  -0.000576   0.000169  -0.000035   0.001258
               7          8          9         10         11         12
     1  C   -0.029500   0.000636   0.000638   0.000966   0.000010  -0.000016
     2  H   -0.001925  -0.000063   0.001342  -0.000011  -0.000001   0.000000
     3  H   -0.001920   0.001340  -0.000064  -0.000011   0.000001   0.000000
     4  C    0.303586  -0.030040  -0.030089  -0.030797  -0.000282   0.000893
     5  H   -0.019545   0.000749  -0.000930   0.000466   0.000372  -0.000003
     6  H   -0.019577  -0.000930   0.000751   0.000466  -0.000068  -0.000003
     7  Si  11.678154   0.374565   0.374578   0.305231  -0.017521  -0.017512
     8  H    0.374565   0.922096  -0.027960  -0.028793   0.000818  -0.000283
     9  H    0.374578  -0.027960   0.922125  -0.028774  -0.000817  -0.000284
    10  C    0.305231  -0.028793  -0.028774   5.531088   0.369916   0.371020
    11  H   -0.017521   0.000818  -0.000817   0.369916   0.518344  -0.023543
    12  H   -0.017512  -0.000283  -0.000284   0.371020  -0.023543   0.513281
    13  H   -0.017524  -0.000817   0.000818   0.369911  -0.023918  -0.023545
    14  Si   0.003090  -0.000082  -0.000082  -0.000118  -0.000002   0.000002
    15  H   -0.000075   0.000000   0.000000   0.000000   0.000000   0.000000
    16  H   -0.000061   0.000000   0.000001   0.000000   0.000000   0.000000
    17  H   -0.000061   0.000001   0.000000   0.000000   0.000000   0.000000
              13         14         15         16         17
     1  C    0.000010   0.305018  -0.025043  -0.025651  -0.025640
     2  H    0.000001  -0.021006  -0.000012  -0.000577   0.000691
     3  H   -0.000001  -0.021000  -0.000012   0.000691  -0.000576
     4  C   -0.000282  -0.031837   0.000874   0.000170   0.000169
     5  H   -0.000068  -0.002263  -0.000014   0.001259  -0.000035
     6  H    0.000372  -0.002267  -0.000014  -0.000035   0.001258
     7  Si  -0.017524   0.003090  -0.000075  -0.000061  -0.000061
     8  H   -0.000817  -0.000082   0.000000   0.000000   0.000001
     9  H    0.000818  -0.000082   0.000000   0.000001   0.000000
    10  C    0.369911  -0.000118   0.000000   0.000000   0.000000
    11  H   -0.023918  -0.000002   0.000000   0.000000   0.000000
    12  H   -0.023545   0.000002   0.000000   0.000000   0.000000
    13  H    0.518361  -0.000002   0.000000   0.000000   0.000000
    14  Si  -0.000002  11.768857   0.363835   0.365176   0.365166
    15  H    0.000000   0.363835   0.906689  -0.023240  -0.023242
    16  H    0.000000   0.365176  -0.023240   0.905286  -0.023416
    17  H    0.000000   0.365166  -0.023242  -0.023416   0.905287
 Mulliken charges:
               1
     1  C   -0.684210
     2  H    0.184242
     3  H    0.184232
     4  C   -0.685206
     5  H    0.178041
     6  H    0.178009
     7  Si   1.086018
     8  H   -0.211238
     9  H   -0.211254
    10  C   -0.860564
    11  H    0.176689
    12  H    0.179992
    13  H    0.176683
    14  Si   0.907514
    15  H   -0.199746
    16  H   -0.199602
    17  H   -0.199602
 Sum of Mulliken charges =   0.00000
 Mulliken charges with hydrogens summed into heavy atoms:
               1
     1  C   -0.315736
     4  C   -0.329155
     7  Si   0.663526
    10  C   -0.327200
    14  Si   0.308564
 Electronic spatial extent (au):  <R**2>=           1351.1118
 Charge=              0.0000 electrons
 Dipole moment (field-independent basis, Debye):
    X=             -0.6086    Y=              0.3488    Z=              0.0006  Tot=              0.7014
 Quadrupole moment (field-independent basis, Debye-Ang):
   XX=            -54.8148   YY=            -53.2397   ZZ=            -52.6625
   XY=             -1.9199   XZ=             -0.0004   YZ=             -0.0006
 Traceless Quadrupole moment (field-independent basis, Debye-Ang):
   XX=             -1.2425   YY=              0.3326   ZZ=              0.9099
   XY=             -1.9199   XZ=             -0.0004   YZ=             -0.0006
 Octapole moment (field-independent basis, Debye-Ang**2):
  XXX=            -23.9846  YYY=              2.7364  ZZZ=              0.0007  XYY=             -2.3265
  XXY=              0.3093  XXZ=              0.0004  XZZ=             -3.0605  YZZ=              1.8118
  YYZ=             -0.0002  XYZ=              0.0001
 Hexadecapole moment (field-independent basis, Debye-Ang**3):
 XXXX=          -1774.3268 YYYY=           -219.3113 ZZZZ=           -129.0067 XXXY=             16.7921
 XXXZ=              0.0066 YYYX=            -16.7044 YYYZ=             -0.0029 ZZZX=             -0.0034
 ZZZY=             -0.0007 XXYY=           -340.8662 XXZZ=           -320.9307 YYZZ=            -59.8869
 XXYZ=              0.0013 YYXZ=              0.0013 ZZXY=            -19.6318
 N-N= 2.755467672055D+02 E-N=-2.209008324155D+03  KE= 6.986705937094D+02
 1\1\GINC-CORN15\Scan\RHF\6-31G\C3H12Si2\JOEBURG\06-Sep-2016\0\\# opt=m
 odredundant hf/6-31g geom=connectivity\\Title Card Required\\0,1\C,-2.
 1422486604,2.5198629416,0.0235276292\H,-1.5134154049,1.6918938589,0.33
 9860875\H,-1.4870595276,3.2262360597,-0.4792205847\C,-2.8098045521,3.1
 84200139,1.246436294\H,-3.4660620696,2.4771455671,1.748309006\H,-3.439
 5539763,4.011872627,0.9288671867\Si,-1.5422324029,3.8500703902,2.53367
 60336\H,-0.6461470091,4.8462525261,1.8615619007\H,-0.6827705142,2.7137
 534867,2.9996357925\C,-2.404943552,4.6672855308,4.0366889634\H,-3.0438
 787584,3.9562945787,4.549191778\H,-1.6732192797,5.0342463972,4.7477288
 756\H,-3.0170744069,5.5055536326,3.7220507715\Si,-3.4107216715,1.85518
 70328,-1.2621491085\H,-2.7196539079,1.220987301,-2.4276799222\H,-4.302
 3096464,0.8350860936,-0.6277651175\H,-4.2657746608,2.9730102099,-1.769
 4293384\\Version=EM64L-G09RevD.01\State=1-A\HF=-698.2821589,-698.28235
 73,-698.2828836,-698.2835759,-698.2842512,-698.2847528,-698.2849799,-6
 98.2848945,-698.2845239,-698.2839759,-698.2834179,-698.2830175,-698.28
 28911,-698.2830762,-698.2835256,-698.2841225,-698.2847117,-698.2851405
 ,-698.2852971\RMSD=6.488e-09,6.388e-09,5.125e-09,7.857e-09,6.512e-09,4
 .003e-09,3.011e-09,6.572e-09,9.615e-09,4.167e-09,6.435e-09,8.990e-09,7
 .506e-09,3.298e-09,3.939e-09,6.167e-09,9.812e-09,6.681e-09,2.459e-09\P
 G=C01 [X(C3H12Si2)]\\@


 DEMOCRATS BUY MOST OF THE BOOKS THAT HAVE BEEN
 BANNED; REPUBLICANS FORM CENSORSHIP COMMITTEES AND
 READ THEM AS A GROUP.
 Job cpu time:       0 days  0 hours  5 minutes 44.0 seconds.
 File lengths (MBytes):  RWF=      7 Int=      0 D2E=      0 Chk=      3 Scr=      1
 Normal termination of Gaussian 09 at Tue Sep  6 18:25:22 2016.
