 Entering Gaussian System, Link 0=g09
 Input=/afs/.ir.stanford.edu/users/j/o/joeburg/Gaussian Input/EtOCSVinyl_RHF6-31G_CCSiC2_scan_0_180.com
 Output=/afs/.ir.stanford.edu/users/j/o/joeburg/Gaussian Input/EtOCSVinyl_RHF6-31G_CCSiC2_scan_0_180.log
 Initial command:
 /farmshare/software/non-free/gaussian/D.01/g09D.01/l1.exe "/tmp/Gau-11389.inp" -scrdir="/tmp/"
 Entering Link 1 = /farmshare/software/non-free/gaussian/D.01/g09D.01/l1.exe PID=     11391.
  
 Copyright (c) 1988,1990,1992,1993,1995,1998,2003,2009,2013,
            Gaussian, Inc.  All Rights Reserved.
  
 This is part of the Gaussian(R) 09 program.  It is based on
 the Gaussian(R) 03 system (copyright 2003, Gaussian, Inc.),
 the Gaussian(R) 98 system (copyright 1998, Gaussian, Inc.),
 the Gaussian(R) 94 system (copyright 1995, Gaussian, Inc.),
 the Gaussian 92(TM) system (copyright 1992, Gaussian, Inc.),
 the Gaussian 90(TM) system (copyright 1990, Gaussian, Inc.),
 the Gaussian 88(TM) system (copyright 1988, Gaussian, Inc.),
 the Gaussian 86(TM) system (copyright 1986, Carnegie Mellon
 University), and the Gaussian 82(TM) system (copyright 1983,
 Carnegie Mellon University). Gaussian is a federally registered
 trademark of Gaussian, Inc.
  
 This software contains proprietary and confidential information,
 including trade secrets, belonging to Gaussian, Inc.
  
 This software is provided under written license and may be
 used, copied, transmitted, or stored only in accord with that
 written license.
  
 The following legend is applicable only to US Government
 contracts under FAR:
  
                    RESTRICTED RIGHTS LEGEND
  
 Use, reproduction and disclosure by the US Government is
 subject to restrictions as set forth in subparagraphs (a)
 and (c) of the Commercial Computer Software - Restricted
 Rights clause in FAR 52.227-19.
  
 Gaussian, Inc.
 340 Quinnipiac St., Bldg. 40, Wallingford CT 06492
  
  
 ---------------------------------------------------------------
 Warning -- This program may not be used in any manner that
 competes with the business of Gaussian, Inc. or will provide
 assistance to any competitor of Gaussian, Inc.  The licensee
 of this program is prohibited from giving any competitor of
 Gaussian, Inc. access to this program.  By using this program,
 the user acknowledges that Gaussian, Inc. is engaged in the
 business of creating and licensing software in the field of
 computational chemistry and represents and warrants to the
 licensee that it is not a competitor of Gaussian, Inc. and that
 it will not use this program in any manner prohibited above.
 ---------------------------------------------------------------
  

 Cite this work as:
 Gaussian 09, Revision D.01,
 M. J. Frisch, G. W. Trucks, H. B. Schlegel, G. E. Scuseria, 
 M. A. Robb, J. R. Cheeseman, G. Scalmani, V. Barone, B. Mennucci, 
 G. A. Petersson, H. Nakatsuji, M. Caricato, X. Li, H. P. Hratchian, 
 A. F. Izmaylov, J. Bloino, G. Zheng, J. L. Sonnenberg, M. Hada, 
 M. Ehara, K. Toyota, R. Fukuda, J. Hasegawa, M. Ishida, T. Nakajima, 
 Y. Honda, O. Kitao, H. Nakai, T. Vreven, J. A. Montgomery, Jr., 
 J. E. Peralta, F. Ogliaro, M. Bearpark, J. J. Heyd, E. Brothers, 
 K. N. Kudin, V. N. Staroverov, T. Keith, R. Kobayashi, J. Normand, 
 K. Raghavachari, A. Rendell, J. C. Burant, S. S. Iyengar, J. Tomasi, 
 M. Cossi, N. Rega, J. M. Millam, M. Klene, J. E. Knox, J. B. Cross, 
 V. Bakken, C. Adamo, J. Jaramillo, R. Gomperts, R. E. Stratmann, 
 O. Yazyev, A. J. Austin, R. Cammi, C. Pomelli, J. W. Ochterski, 
 R. L. Martin, K. Morokuma, V. G. Zakrzewski, G. A. Voth, 
 P. Salvador, J. J. Dannenberg, S. Dapprich, A. D. Daniels, 
 O. Farkas, J. B. Foresman, J. V. Ortiz, J. Cioslowski, 
 and D. J. Fox, Gaussian, Inc., Wallingford CT, 2013.
 
 ******************************************
 Gaussian 09:  EM64L-G09RevD.01 24-Apr-2013
                 7-Sep-2016 
 ******************************************
 %chk=EtOCSVinyl_RHF6-31G_CCSiC2_scan_0_180.chk
 ---------------------------------------------
 # opt=modredundant hf/6-31g geom=connectivity
 ---------------------------------------------
 1/18=120,19=15,38=1,57=2/1,3;
 2/9=110,12=2,17=6,18=5,40=1/2;
 3/5=1,6=6,11=9,16=1,25=1,30=1,71=1/1,2,3;
 4//1;
 5/5=2,38=5/2;
 6/7=2,8=2,9=2,10=2,28=1/1;
 7//1,2,3,16;
 1/18=20,19=15/3(2);
 2/9=110/2;
 99//99;
 2/9=110/2;
 3/5=1,6=6,11=9,16=1,25=1,30=1,71=1/1,2,3;
 4/5=5,16=3,69=1/1;
 5/5=2,38=5/2;
 7//1,2,3,16;
 1/18=20,19=15/3(-5);
 2/9=110/2;
 6/7=2,8=2,9=2,10=2,19=2,28=1/1;
 99/9=1/99;
 -------------------
 Title Card Required
 -------------------
 Symbolic Z-matrix:
 Charge =  0 Multiplicity = 1
 C                    -3.83015   0.16886   2.0159 
 H                    -3.41013   0.19087   2.99977 
 H                    -3.42933  -0.66313   1.4755 
 H                    -4.89348   0.07096   2.08414 
 C                    -3.48117   1.47553   1.27941 
 H                    -3.90119   1.45352   0.29554 
 H                    -3.88199   2.30753   1.81981 
 Si                   -1.55327   1.65303   1.15567 
 H                    -1.13005   2.88572   1.83558 
 H                    -1.15643   1.71246  -0.2585 
 C                    -0.70764   0.1253    2.00097 
 H                    -1.19153  -0.37087   2.81617 
 C                     0.49597  -0.31349   1.55897 
 H                     0.97987   0.18268   0.74376 
 H                     0.96237  -1.15611   2.02518 
 
 The following ModRedundant input section has been read:
 D       1       5       8      11 S  18 10.000                                
 

 GradGradGradGradGradGradGradGradGradGradGradGradGradGradGradGradGradGrad
 Berny optimization.
 Initialization pass.
                           ----------------------------
                           !    Initial Parameters    !
                           ! (Angstroms and Degrees)  !
 --------------------------                            --------------------------
 ! Name  Definition              Value          Derivative Info.                !
 --------------------------------------------------------------------------------
 ! R1    R(1,2)                  1.07           estimate D2E/DX2                !
 ! R2    R(1,3)                  1.07           estimate D2E/DX2                !
 ! R3    R(1,4)                  1.07           estimate D2E/DX2                !
 ! R4    R(1,5)                  1.54           estimate D2E/DX2                !
 ! R5    R(5,6)                  1.07           estimate D2E/DX2                !
 ! R6    R(5,7)                  1.07           estimate D2E/DX2                !
 ! R7    R(5,8)                  1.94           estimate D2E/DX2                !
 ! R8    R(8,9)                  1.47           estimate D2E/DX2                !
 ! R9    R(8,10)                 1.47           estimate D2E/DX2                !
 ! R10   R(8,11)                 1.94           estimate D2E/DX2                !
 ! R11   R(11,12)                1.07           estimate D2E/DX2                !
 ! R12   R(11,13)                1.3552         estimate D2E/DX2                !
 ! R13   R(13,14)                1.07           estimate D2E/DX2                !
 ! R14   R(13,15)                1.07           estimate D2E/DX2                !
 ! A1    A(2,1,3)              109.4712         estimate D2E/DX2                !
 ! A2    A(2,1,4)              109.4712         estimate D2E/DX2                !
 ! A3    A(2,1,5)              109.4712         estimate D2E/DX2                !
 ! A4    A(3,1,4)              109.4712         estimate D2E/DX2                !
 ! A5    A(3,1,5)              109.4712         estimate D2E/DX2                !
 ! A6    A(4,1,5)              109.4712         estimate D2E/DX2                !
 ! A7    A(1,5,6)              109.4712         estimate D2E/DX2                !
 ! A8    A(1,5,7)              109.4712         estimate D2E/DX2                !
 ! A9    A(1,5,8)              109.4712         estimate D2E/DX2                !
 ! A10   A(6,5,7)              109.4712         estimate D2E/DX2                !
 ! A11   A(6,5,8)              109.4712         estimate D2E/DX2                !
 ! A12   A(7,5,8)              109.4712         estimate D2E/DX2                !
 ! A13   A(5,8,9)              109.4712         estimate D2E/DX2                !
 ! A14   A(5,8,10)             109.4712         estimate D2E/DX2                !
 ! A15   A(5,8,11)             109.4712         estimate D2E/DX2                !
 ! A16   A(9,8,10)             109.4712         estimate D2E/DX2                !
 ! A17   A(9,8,11)             109.4712         estimate D2E/DX2                !
 ! A18   A(10,8,11)            109.4712         estimate D2E/DX2                !
 ! A19   A(8,11,12)            120.0            estimate D2E/DX2                !
 ! A20   A(8,11,13)            120.0            estimate D2E/DX2                !
 ! A21   A(12,11,13)           120.0            estimate D2E/DX2                !
 ! A22   A(11,13,14)           120.0            estimate D2E/DX2                !
 ! A23   A(11,13,15)           120.0            estimate D2E/DX2                !
 ! A24   A(14,13,15)           120.0            estimate D2E/DX2                !
 ! D1    D(2,1,5,6)            180.0            estimate D2E/DX2                !
 ! D2    D(2,1,5,7)            -60.0            estimate D2E/DX2                !
 ! D3    D(2,1,5,8)             60.0            estimate D2E/DX2                !
 ! D4    D(3,1,5,6)             60.0            estimate D2E/DX2                !
 ! D5    D(3,1,5,7)            180.0            estimate D2E/DX2                !
 ! D6    D(3,1,5,8)            -60.0            estimate D2E/DX2                !
 ! D7    D(4,1,5,6)            -60.0            estimate D2E/DX2                !
 ! D8    D(4,1,5,7)             60.0            estimate D2E/DX2                !
 ! D9    D(4,1,5,8)            180.0            estimate D2E/DX2                !
 ! D10   D(1,5,8,9)           -120.0            estimate D2E/DX2                !
 ! D11   D(1,5,8,10)           120.0            estimate D2E/DX2                !
 ! D12   D(1,5,8,11)             0.0            Scan                            !
 ! D13   D(6,5,8,9)            120.0            estimate D2E/DX2                !
 ! D14   D(6,5,8,10)             0.0            estimate D2E/DX2                !
 ! D15   D(6,5,8,11)          -120.0            estimate D2E/DX2                !
 ! D16   D(7,5,8,9)              0.0            estimate D2E/DX2                !
 ! D17   D(7,5,8,10)          -120.0            estimate D2E/DX2                !
 ! D18   D(7,5,8,11)           120.0            estimate D2E/DX2                !
 ! D19   D(5,8,11,12)          -30.0            estimate D2E/DX2                !
 ! D20   D(5,8,11,13)          150.0            estimate D2E/DX2                !
 ! D21   D(9,8,11,12)           90.0            estimate D2E/DX2                !
 ! D22   D(9,8,11,13)          -90.0            estimate D2E/DX2                !
 ! D23   D(10,8,11,12)        -150.0            estimate D2E/DX2                !
 ! D24   D(10,8,11,13)          30.0            estimate D2E/DX2                !
 ! D25   D(8,11,13,14)          -0.0001         estimate D2E/DX2                !
 ! D26   D(8,11,13,15)        -179.9999         estimate D2E/DX2                !
 ! D27   D(12,11,13,14)        179.9999         estimate D2E/DX2                !
 ! D28   D(12,11,13,15)          0.0001         estimate D2E/DX2                !
 --------------------------------------------------------------------------------
 Trust Radius=3.00D-01 FncErr=1.00D-07 GrdErr=1.00D-07
 Number of optimizations in scan=  19
 Number of steps in this run=     76 maximum allowed number of steps=    100.
 GradGradGradGradGradGradGradGradGradGradGradGradGradGradGradGradGradGrad

                          Input orientation:                          
 ---------------------------------------------------------------------
 Center     Atomic      Atomic             Coordinates (Angstroms)
 Number     Number       Type             X           Y           Z
 ---------------------------------------------------------------------
      1          6           0       -3.830152    0.168860    2.015898
      2          1           0       -3.410126    0.190869    2.999765
      3          1           0       -3.429327   -0.663133    1.475502
      4          1           0       -4.893476    0.070959    2.084143
      5          6           0       -3.481169    1.475533    1.279409
      6          1           0       -3.901195    1.453524    0.295542
      7          1           0       -3.881994    2.307526    1.819805
      8         14           0       -1.553273    1.653035    1.155675
      9          1           0       -1.130053    2.885718    1.835583
     10          1           0       -1.156432    1.712463   -0.258498
     11          6           0       -0.707636    0.125300    2.000970
     12          1           0       -1.191535   -0.370869    2.816175
     13          6           0        0.495967   -0.313492    1.558965
     14          1           0        0.979865    0.182676    0.743759
     15          1           0        0.962375   -1.156109    2.025184
 ---------------------------------------------------------------------
                    Distance matrix (angstroms):
                    1          2          3          4          5
     1  C    0.000000
     2  H    1.070000   0.000000
     3  H    1.070000   1.747303   0.000000
     4  H    1.070000   1.747303   1.747303   0.000000
     5  C    1.540000   2.148263   2.148263   2.148263   0.000000
     6  H    2.148263   3.024610   2.468846   2.468846   1.070000
     7  H    2.148263   2.468846   3.024610   2.468846   1.070000
     8  Si   2.850778   2.997749   2.997749   3.810770   1.940000
     9  H    3.834627   3.717024   4.243898   4.706166   2.797445
    10  H    3.834627   4.243898   3.717024   4.706166   2.797445
    11  C    3.122855   2.881899   2.881899   4.187018   3.168007
    12  H    2.809635   2.295954   2.624983   3.799401   3.318626
    13  C    4.376843   4.193787   3.941719   5.428601   4.369940
    14  H    4.975418   4.935753   4.548826   6.025383   4.675385
    15  H    4.972317   4.677919   4.453338   5.983323   5.217931
                    6          7          8          9         10
     6  H    0.000000
     7  H    1.747303   0.000000
     8  Si   2.508459   2.508459   0.000000
     9  H    3.478812   2.812069   1.470000   0.000000
    10  H    2.812069   3.478812   1.470000   2.400500   0.000000
    11  C    3.856356   3.856356   1.940000   2.797445   2.797445
    12  H    4.126046   3.924936   2.642783   3.401573   3.714178
    13  C    4.904448   5.109238   2.868668   3.599361   3.184036
    14  H    5.063664   5.413920   2.957773   3.598648   2.812211
    15  H    5.784129   5.958763   3.869860   4.555280   4.234767
                   11         12         13         14         15
    11  C    0.000000
    12  H    1.070000   0.000000
    13  C    1.355200   2.105120   0.000000
    14  H    2.105120   3.052261   1.070000   0.000000
    15  H    2.105120   2.425200   1.070000   1.853294   0.000000
 Stoichiometry    C4H10Si
 Framework group  C1[X(C4H10Si)]
 Deg. of freedom    39
 Full point group                 C1      NOp   1
 Largest Abelian subgroup         C1      NOp   1
 Largest concise Abelian subgroup C1      NOp   1
                         Standard orientation:                         
 ---------------------------------------------------------------------
 Center     Atomic      Atomic             Coordinates (Angstroms)
 Number     Number       Type             X           Y           Z
 ---------------------------------------------------------------------
      1          6           0       -1.794950    1.187622    0.056487
      2          1           0       -1.398766    1.520117   -0.880202
      3          1           0       -1.204993    1.586552    0.855052
      4          1           0       -2.805362    1.525239    0.156392
      5          6           0       -1.760016   -0.350999    0.111493
      6          1           0       -2.156200   -0.683493    1.048182
      7          1           0       -2.349973   -0.749929   -0.687072
      8         14           0        0.071947   -0.963127   -0.069642
      9          1           0        0.186871   -1.820409   -1.258238
     10          1           0        0.453081   -1.729138    1.125709
     11          6           0        1.249248    0.567050   -0.259693
     12          1           0        0.890938    1.463778   -0.720554
     13          6           0        2.525476    0.500222    0.191245
     14          1           0        2.883786   -0.396505    0.652107
     15          1           0        3.174811    1.344186    0.086425
 ---------------------------------------------------------------------
 Rotational constants (GHZ):      6.4454053      2.2876047      1.7901970
 Standard basis: 6-31G (6D, 7F)
 There are    69 symmetry adapted cartesian basis functions of A   symmetry.
 There are    69 symmetry adapted basis functions of A   symmetry.
    69 basis functions,   174 primitive gaussians,    69 cartesian basis functions
    24 alpha electrons       24 beta electrons
       nuclear repulsion energy       218.1457705527 Hartrees.
 NAtoms=   15 NActive=   15 NUniq=   15 SFac= 1.00D+00 NAtFMM=   60 NAOKFM=F Big=F
 Integral buffers will be    131072 words long.
 Raffenetti 1 integral format.
 Two-electron integral symmetry is turned on.
 One-electron integrals computed using PRISM.
 NBasis=    69 RedAO= T EigKep=  8.33D-03  NBF=    69
 NBsUse=    69 1.00D-06 EigRej= -1.00D+00 NBFU=    69
 ExpMin= 7.78D-02 ExpMax= 1.61D+04 ExpMxC= 2.43D+03 IAcc=2 IRadAn=         4 AccDes= 0.00D+00
 Harris functional with IExCor=  205 and IRadAn=       4 diagonalized for initial guess.
 HarFok:  IExCor=  205 AccDes= 0.00D+00 IRadAn=         4 IDoV= 1 UseB2=F ITyADJ=14
 ICtDFT=  3500011 ScaDFX=  1.000000  1.000000  1.000000  1.000000
 FoFCou: FMM=F IPFlag=           0 FMFlag=      100000 FMFlg1=           0
         NFxFlg=           0 DoJE=T BraDBF=F KetDBF=T FulRan=T
         wScrn=  0.000000 ICntrl=     500 IOpCl=  0 I1Cent=   200000004 NGrid=           0
         NMat0=    1 NMatS0=      1 NMatT0=    0 NMatD0=    1 NMtDS0=    0 NMtDT0=    0
 Petite list used in FoFCou.
 Keep R1 ints in memory in canonical form, NReq=3807435.
 Requested convergence on RMS density matrix=1.00D-08 within 128 cycles.
 Requested convergence on MAX density matrix=1.00D-06.
 Requested convergence on             energy=1.00D-06.
 No special actions if energy rises.
 SCF Done:  E(RHF) =  -446.074670448     A.U. after   12 cycles
            NFock= 12  Conv=0.97D-08     -V/T= 1.9991

 **********************************************************************

            Population analysis using the SCF density.

 **********************************************************************

 Orbital symmetries:
       Occupied  (A) (A) (A) (A) (A) (A) (A) (A) (A) (A) (A) (A)
                 (A) (A) (A) (A) (A) (A) (A) (A) (A) (A) (A) (A)
       Virtual   (A) (A) (A) (A) (A) (A) (A) (A) (A) (A) (A) (A)
                 (A) (A) (A) (A) (A) (A) (A) (A) (A) (A) (A) (A)
                 (A) (A) (A) (A) (A) (A) (A) (A) (A) (A) (A) (A)
                 (A) (A) (A) (A) (A) (A) (A) (A) (A)
 The electronic state is 1-A.
 Alpha  occ. eigenvalues --  -68.77179 -11.23745 -11.22858 -11.21200 -11.20954
 Alpha  occ. eigenvalues --   -6.13637  -4.24194  -4.24138  -4.24050  -1.03578
 Alpha  occ. eigenvalues --   -1.02168  -0.84956  -0.78809  -0.69492  -0.62445
 Alpha  occ. eigenvalues --   -0.61635  -0.58157  -0.55314  -0.50881  -0.50561
 Alpha  occ. eigenvalues --   -0.46648  -0.43221  -0.40759  -0.36293
 Alpha virt. eigenvalues --    0.14253   0.17096   0.18071   0.24635   0.25809
 Alpha virt. eigenvalues --    0.26592   0.29401   0.29760   0.30764   0.33036
 Alpha virt. eigenvalues --    0.34223   0.34814   0.38048   0.39522   0.41463
 Alpha virt. eigenvalues --    0.43037   0.49328   0.54781   0.55410   0.70251
 Alpha virt. eigenvalues --    0.77869   0.78989   0.81276   0.82617   0.88107
 Alpha virt. eigenvalues --    0.90701   0.94888   0.99758   1.02599   1.07544
 Alpha virt. eigenvalues --    1.16622   1.20782   1.21828   1.23508   1.25084
 Alpha virt. eigenvalues --    1.25816   1.26632   1.28300   1.29223   1.31378
 Alpha virt. eigenvalues --    1.33981   1.36041   1.43102   1.54816   1.81460
          Condensed to atoms (all electrons):
               1          2          3          4          5          6
     1  C    5.125632   0.394565   0.395914   0.396354   0.243499  -0.039055
     2  H    0.394565   0.569886  -0.031035  -0.030692  -0.048830   0.004437
     3  H    0.395914  -0.031035   0.554417  -0.029849  -0.048296  -0.002351
     4  H    0.396354  -0.030692  -0.029849   0.554529  -0.045329  -0.004376
     5  C    0.243499  -0.048830  -0.048296  -0.045329   5.623646   0.382302
     6  H   -0.039055   0.004437  -0.002351  -0.004376   0.382302   0.523305
     7  H   -0.039427  -0.002635   0.004422  -0.004354   0.380513  -0.022949
     8  Si  -0.034494  -0.003100  -0.002829   0.004968   0.306910  -0.020667
     9  H    0.000771   0.000078  -0.000020  -0.000036  -0.031834   0.000485
    10  H    0.000759   0.000000   0.000052  -0.000039  -0.027567  -0.000229
    11  C   -0.004404  -0.001133   0.000165   0.000220  -0.031341   0.000541
    12  H   -0.001849   0.000703  -0.000067   0.000081   0.000277   0.000011
    13  C    0.000037   0.000064  -0.000092  -0.000004   0.000250  -0.000013
    14  H   -0.000010   0.000000  -0.000003   0.000000   0.000008  -0.000001
    15  H    0.000011  -0.000002   0.000003   0.000000  -0.000032   0.000000
               7          8          9         10         11         12
     1  C   -0.039427  -0.034494   0.000771   0.000759  -0.004404  -0.001849
     2  H   -0.002635  -0.003100   0.000078   0.000000  -0.001133   0.000703
     3  H    0.004422  -0.002829  -0.000020   0.000052   0.000165  -0.000067
     4  H   -0.004354   0.004968  -0.000036  -0.000039   0.000220   0.000081
     5  C    0.380513   0.306910  -0.031834  -0.027567  -0.031341   0.000277
     6  H   -0.022949  -0.020667   0.000485  -0.000229   0.000541   0.000011
     7  H    0.526145  -0.020281  -0.000402   0.000570   0.000605   0.000031
     8  Si  -0.020281  11.672580   0.369379   0.375082   0.309294  -0.018648
     9  H   -0.000402   0.369379   0.926605  -0.029083  -0.030953   0.000176
    10  H    0.000570   0.375082  -0.029083   0.915824  -0.032502   0.000194
    11  C    0.000605   0.309294  -0.030953  -0.032502   5.494445   0.390217
    12  H    0.000031  -0.018648   0.000176   0.000194   0.390217   0.486056
    13  C   -0.000011  -0.016064  -0.001346   0.003483   0.543243  -0.031272
    14  H    0.000000  -0.002230  -0.000099   0.000583  -0.047318   0.002850
    15  H    0.000000   0.002832  -0.000035   0.000073  -0.046745  -0.004242
              13         14         15
     1  C    0.000037  -0.000010   0.000011
     2  H    0.000064   0.000000  -0.000002
     3  H   -0.000092  -0.000003   0.000003
     4  H   -0.000004   0.000000   0.000000
     5  C    0.000250   0.000008  -0.000032
     6  H   -0.000013  -0.000001   0.000000
     7  H   -0.000011   0.000000   0.000000
     8  Si  -0.016064  -0.002230   0.002832
     9  H   -0.001346  -0.000099  -0.000035
    10  H    0.003483   0.000583   0.000073
    11  C    0.543243  -0.047318  -0.046745
    12  H   -0.031272   0.002850  -0.004242
    13  C    5.013096   0.400319   0.397088
    14  H    0.400319   0.505875  -0.024620
    15  H    0.397088  -0.024620   0.508706
 Mulliken charges:
               1
     1  C   -0.438302
     2  H    0.147694
     3  H    0.159570
     4  H    0.158528
     5  C   -0.704177
     6  H    0.178559
     7  H    0.177772
     8  Si   1.077267
     9  H   -0.203688
    10  H   -0.207199
    11  C   -0.544335
    12  H    0.175482
    13  C   -0.308777
    14  H    0.164644
    15  H    0.166961
 Sum of Mulliken charges =   0.00000
 Mulliken charges with hydrogens summed into heavy atoms:
               1
     1  C    0.027490
     5  C   -0.347846
     8  Si   0.666380
    11  C   -0.368853
    13  C    0.022828
 Electronic spatial extent (au):  <R**2>=            730.3503
 Charge=              0.0000 electrons
 Dipole moment (field-independent basis, Debye):
    X=             -0.1540    Y=              0.4791    Z=              0.0811  Tot=              0.5097
 Quadrupole moment (field-independent basis, Debye-Ang):
   XX=            -40.0273   YY=            -42.1501   ZZ=            -43.2596
   XY=              0.8527   XZ=              0.7890   YZ=             -1.0689
 Traceless Quadrupole moment (field-independent basis, Debye-Ang):
   XX=              1.7851   YY=             -0.3378   ZZ=             -1.4473
   XY=              0.8527   XZ=              0.7890   YZ=             -1.0689
 Octapole moment (field-independent basis, Debye-Ang**2):
  XXX=              5.4114  YYY=              7.1105  ZZZ=              0.8209  XYY=              1.0313
  XXY=              2.2052  XXZ=              3.1361  XZZ=             -4.6084  YZZ=              3.6856
  YYZ=             -0.4927  XYZ=             -1.1031
 Hexadecapole moment (field-independent basis, Debye-Ang**3):
 XXXX=           -658.9900 YYYY=           -285.7536 ZZZZ=            -93.2630 XXXY=              6.8273
 XXXZ=             10.3708 YYYX=              9.1502 YYYZ=             -3.9719 ZZZX=              0.1800
 ZZZY=             -2.6211 XXYY=           -153.5548 XXZZ=           -133.0289 YYZZ=            -67.4067
 XXYZ=             -1.9237 YYXZ=             -1.5485 ZZXY=              0.8505
 N-N= 2.181457705527D+02 E-N=-1.490980522935D+03  KE= 4.464770630806D+02
 Calling FoFJK, ICntrl=      2127 FMM=F ISym2X=0 I1Cent= 0 IOpClX= 0 NMat=1 NMatS=1 NMatT=0.
 ***** Axes restored to original set *****
 -------------------------------------------------------------------
 Center     Atomic                   Forces (Hartrees/Bohr)
 Number     Number              X              Y              Z
 -------------------------------------------------------------------
      1        6          -0.001515494    0.015955297   -0.009275575
      2        1          -0.000073960   -0.004688795    0.009788796
      3        1           0.001066681   -0.010782038   -0.000930665
      4        1          -0.009778441   -0.005072660    0.003155215
      5        6           0.016290949   -0.012101046    0.007057928
      6        1          -0.004940048    0.003620789   -0.009009421
      7        1          -0.005084012    0.009617315    0.001572139
      8       14          -0.010127965   -0.015631768    0.011960796
      9        1           0.003999646    0.009476494    0.003381690
     10        1           0.006180379    0.000882068   -0.008309924
     11        6           0.030034844    0.005771432   -0.025589305
     12        1           0.000227120   -0.001924406    0.003180650
     13        6          -0.039625369    0.010632560    0.017614151
     14        1           0.006169772   -0.003816743   -0.002275481
     15        1           0.007175895   -0.001938500   -0.002320996
 -------------------------------------------------------------------
 Cartesian Forces:  Max     0.039625369 RMS     0.011394625

 GradGradGradGradGradGradGradGradGradGradGradGradGradGradGradGradGradGrad
 Berny optimization.
 FormGI is forming the generalized inverse of G from B-inverse, IUseBI=4.
 Internal  Forces:  Max     0.029164946 RMS     0.006889757
 Search for a local minimum.
 Step number   1 out of a maximum of   76 on scan point     1 out of    19
 All quantities printed in internal units (Hartrees-Bohrs-Radians)
 Mixed Optimization -- RFO/linear search
 Second derivative matrix not updated -- first step.
 ITU=  0
     Eigenvalues ---    0.00237   0.00239   0.01216   0.01616   0.02681
     Eigenvalues ---    0.02681   0.04084   0.04897   0.05411   0.05720
     Eigenvalues ---    0.05720   0.07655   0.08670   0.10639   0.12177
     Eigenvalues ---    0.16000   0.16000   0.16000   0.16000   0.16000
     Eigenvalues ---    0.16000   0.17593   0.17593   0.18253   0.18253
     Eigenvalues ---    0.21948   0.21983   0.22000   0.28519   0.37230
     Eigenvalues ---    0.37230   0.37230   0.37230   0.37230   0.37230
     Eigenvalues ---    0.37230   0.37230   0.539301000.000001000.00000
     Eigenvalues --- 1000.000001000.000001000.000001000.000001000.00000
     Eigenvalues --- 1000.000001000.000001000.000001000.000001000.00000
     Eigenvalues --- 1000.000001000.000001000.000001000.000001000.00000
     Eigenvalues --- 1000.000001000.000001000.000001000.000001000.00000
     Eigenvalues --- 1000.000001000.000001000.000001000.000001000.00000
     Eigenvalues --- 1000.00000
 RFO step:  Lambda=-1.28997714D-02 EMin= 2.36824218D-03
 Linear search not attempted -- first point.
 Iteration  1 RMS(Cart)=  0.12534311 RMS(Int)=  0.00439439
 Iteration  2 RMS(Cart)=  0.00499044 RMS(Int)=  0.00049404
 Iteration  3 RMS(Cart)=  0.00001811 RMS(Int)=  0.00049384
 Iteration  4 RMS(Cart)=  0.00000001 RMS(Int)=  0.00049384
 Iteration  1 RMS(Cart)=  0.00003847 RMS(Int)=  0.00002579
 Iteration  2 RMS(Cart)=  0.00002505 RMS(Int)=  0.00002857
 Iteration  3 RMS(Cart)=  0.00001631 RMS(Int)=  0.00003282
 Iteration  4 RMS(Cart)=  0.00001062 RMS(Int)=  0.00003627
 Iteration  5 RMS(Cart)=  0.00000692 RMS(Int)=  0.00003873
 Iteration  6 RMS(Cart)=  0.00000450 RMS(Int)=  0.00004041
 Iteration  7 RMS(Cart)=  0.00000293 RMS(Int)=  0.00004153
 Iteration  8 RMS(Cart)=  0.00000191 RMS(Int)=  0.00004226
 Iteration  9 RMS(Cart)=  0.00000124 RMS(Int)=  0.00004275
 Iteration 10 RMS(Cart)=  0.00000081 RMS(Int)=  0.00004307
 Variable       Old X    -DE/DX   Delta X   Delta X   Delta X     New X
                                 (Linear)    (Quad)   (Total)
    R1        2.02201   0.00888   0.00000   0.02304   0.02304   2.04505
    R2        2.02201   0.00925   0.00000   0.02402   0.02402   2.04603
    R3        2.02201   0.01038   0.00000   0.02695   0.02695   2.04896
    R4        2.91018   0.00754   0.00000   0.02528   0.02528   2.93546
    R5        2.02201   0.01015   0.00000   0.02635   0.02635   2.04835
    R6        2.02201   0.01018   0.00000   0.02642   0.02642   2.04843
    R7        3.66607   0.00448   0.00000   0.02370   0.02370   3.68977
    R8        2.77790   0.01066   0.00000   0.05456   0.05456   2.83246
    R9        2.77790   0.00970   0.00000   0.04963   0.04963   2.82752
   R10        3.66607  -0.00923   0.00000  -0.04886  -0.04886   3.61721
   R11        2.02201   0.00321   0.00000   0.00834   0.00834   2.03035
   R12        2.56096  -0.02916   0.00000  -0.05282  -0.05282   2.50814
   R13        2.02201   0.00275   0.00000   0.00715   0.00715   2.02916
   R14        2.02201   0.00364   0.00000   0.00946   0.00946   2.03146
    A1        1.91063  -0.00547   0.00000  -0.02580  -0.02679   1.88385
    A2        1.91063  -0.00596   0.00000  -0.03871  -0.03897   1.87166
    A3        1.91063   0.00655   0.00000   0.03867   0.03800   1.94863
    A4        1.91063  -0.00536   0.00000  -0.03264  -0.03296   1.87767
    A5        1.91063   0.00612   0.00000   0.03748   0.03677   1.94741
    A6        1.91063   0.00413   0.00000   0.02099   0.02068   1.93131
    A7        1.91063  -0.00449   0.00000  -0.01031  -0.01009   1.90054
    A8        1.91063  -0.00478   0.00000  -0.00342  -0.00432   1.90631
    A9        1.91063   0.02026   0.00000   0.10197   0.10110   2.01173
   A10        1.91063   0.00113   0.00000  -0.04262  -0.04359   1.86704
   A11        1.91063  -0.00648   0.00000  -0.02880  -0.02976   1.88087
   A12        1.91063  -0.00565   0.00000  -0.01682  -0.01858   1.89206
   A13        1.91063  -0.00294   0.00000   0.00030  -0.00004   1.91059
   A14        1.91063  -0.00081   0.00000   0.00998   0.01052   1.92116
   A15        1.91063   0.01442   0.00000   0.07145   0.07094   1.98157
   A16        1.91063   0.00004   0.00000  -0.03165  -0.03226   1.87837
   A17        1.91063  -0.00360   0.00000  -0.01025  -0.01134   1.89929
   A18        1.91063  -0.00711   0.00000  -0.03984  -0.04087   1.86976
   A19        2.09440  -0.00283   0.00000  -0.00973  -0.00974   2.08465
   A20        2.09440   0.00892   0.00000   0.03828   0.03826   2.13266
   A21        2.09440  -0.00608   0.00000  -0.02855  -0.02856   2.06583
   A22        2.09440   0.00484   0.00000   0.02802   0.02801   2.12241
   A23        2.09440   0.00451   0.00000   0.02607   0.02606   2.12046
   A24        2.09440  -0.00935   0.00000  -0.05409  -0.05410   2.04030
    D1        3.14159   0.00283   0.00000   0.04986   0.05031  -3.09129
    D2       -1.04720  -0.00147   0.00000  -0.01075  -0.01087  -1.05807
    D3        1.04720   0.00110   0.00000   0.02901   0.02925   1.07645
    D4        1.04720   0.00177   0.00000   0.03482   0.03491   1.08211
    D5        3.14159  -0.00252   0.00000  -0.02579  -0.02627   3.11532
    D6       -1.04720   0.00004   0.00000   0.01397   0.01385  -1.03335
    D7       -1.04720   0.00207   0.00000   0.03898   0.03922  -1.00797
    D8        1.04720  -0.00223   0.00000  -0.02162  -0.02195   1.02524
    D9        3.14159   0.00034   0.00000   0.01813   0.01817  -3.12343
   D10       -2.09440  -0.00157   0.00000  -0.03138  -0.03171  -2.12611
   D11        2.09440   0.00067   0.00000   0.00108   0.00139   2.09578
   D12        0.00000   0.00105   0.00000   0.00000   0.00000   0.00000
   D13        2.09440  -0.00452   0.00000  -0.06356  -0.06340   2.03099
   D14        0.00000  -0.00228   0.00000  -0.03110  -0.03030  -0.03030
   D15       -2.09440  -0.00190   0.00000  -0.03218  -0.03169  -2.12609
   D16        0.00000   0.00152   0.00000   0.01658   0.01602   0.01602
   D17       -2.09440   0.00377   0.00000   0.04904   0.04913  -2.04527
   D18        2.09440   0.00414   0.00000   0.04796   0.04774   2.14213
   D19       -0.52360  -0.00080   0.00000  -0.06111  -0.06162  -0.58521
   D20        2.61799  -0.00055   0.00000  -0.05127  -0.05173   2.56627
   D21        1.57080   0.00223   0.00000  -0.02327  -0.02363   1.54717
   D22       -1.57080   0.00247   0.00000  -0.01342  -0.01374  -1.58453
   D23       -2.61799  -0.00428   0.00000  -0.09270  -0.09190  -2.70990
   D24        0.52360  -0.00404   0.00000  -0.08285  -0.08202   0.44158
   D25        0.00000  -0.00097   0.00000  -0.02618  -0.02615  -0.02615
   D26       -3.14159  -0.00066   0.00000  -0.01852  -0.01849   3.12311
   D27        3.14159  -0.00072   0.00000  -0.01633  -0.01636   3.12523
   D28        0.00000  -0.00042   0.00000  -0.00867  -0.00870  -0.00870
         Item               Value     Threshold  Converged?
 Maximum Force            0.029165     0.000450     NO 
 RMS     Force            0.006939     0.000300     NO 
 Maximum Displacement     0.468946     0.001800     NO 
 RMS     Displacement     0.126315     0.001200     NO 
 Predicted change in Energy=-7.054868D-03
 GradGradGradGradGradGradGradGradGradGradGradGradGradGradGradGradGradGrad

                          Input orientation:                          
 ---------------------------------------------------------------------
 Center     Atomic      Atomic             Coordinates (Angstroms)
 Number     Number       Type             X           Y           Z
 ---------------------------------------------------------------------
      1          6           0       -3.983551    0.167200    2.017862
      2          1           0       -3.658282    0.128069    3.049274
      3          1           0       -3.636442   -0.731861    1.524436
      4          1           0       -5.067495    0.141117    2.021569
      5          6           0       -3.468655    1.446448    1.302744
      6          1           0       -3.860905    1.465756    0.292448
      7          1           0       -3.859133    2.320887    1.810578
      8         14           0       -1.526541    1.614235    1.191122
      9          1           0       -1.096306    2.888252    1.853235
     10          1           0       -1.098286    1.680946   -0.240990
     11          6           0       -0.585723    0.153031    1.993425
     12          1           0       -1.001067   -0.331691    2.857659
     13          6           0        0.577408   -0.281732    1.524702
     14          1           0        1.032456    0.154790    0.655570
     15          1           0        1.104360   -1.092588    1.994244
 ---------------------------------------------------------------------
                    Distance matrix (angstroms):
                    1          2          3          4          5
     1  C    0.000000
     2  H    1.082193   0.000000
     3  H    1.082712   1.750739   0.000000
     4  H    1.084264   1.744198   1.748469   0.000000
     5  C    1.553379   2.196463   2.195980   2.185609   0.000000
     6  H    2.162948   3.070920   2.529367   2.490058   1.083942
     7  H    2.167214   2.526492   3.074206   2.501211   1.083980
     8  Si   2.968891   3.194642   3.172845   3.924038   1.952542
     9  H    3.970820   3.951308   4.434593   4.831710   2.830173
    10  H    3.964668   4.448690   3.921811   4.821293   2.838442
    11  C    3.397946   3.249009   3.210898   4.481876   3.234388
    12  H    3.138369   2.703495   2.980405   4.178328   3.415922
    13  C    4.609457   4.520324   4.237823   5.682482   4.405281
    14  H    5.197723   5.266266   4.831116   6.251043   4.727284
    15  H    5.241609   5.028504   4.777661   6.294010   5.276111
                    6          7          8          9         10
     6  H    0.000000
     7  H    1.742404   0.000000
     8  Si   2.505777   2.514770   0.000000
     9  H    3.478873   2.820804   1.498871   0.000000
    10  H    2.821866   3.498676   1.496261   2.417307   0.000000
    11  C    3.917064   3.930426   1.914144   2.785998   2.754969
    12  H    4.241438   4.037461   2.615357   3.374310   3.696185
    13  C    4.926539   5.151529   2.851766   3.599730   3.126935
    14  H    5.078925   5.472994   2.994205   3.665767   2.770024
    15  H    5.839100   6.026758   3.859215   4.550814   4.188128
                   11         12         13         14         15
    11  C    0.000000
    12  H    1.074414   0.000000
    13  C    1.327251   2.066604   0.000000
    14  H    2.099611   3.036622   1.073783   0.000000
    15  H    2.099512   2.399432   1.075005   1.831166   0.000000
 Stoichiometry    C4H10Si
 Framework group  C1[X(C4H10Si)]
 Deg. of freedom    39
 Full point group                 C1      NOp   1
 Largest Abelian subgroup         C1      NOp   1
 Largest concise Abelian subgroup C1      NOp   1
                         Standard orientation:                         
 ---------------------------------------------------------------------
 Center     Atomic      Atomic             Coordinates (Angstroms)
 Number     Number       Type             X           Y           Z
 ---------------------------------------------------------------------
      1          6           0       -2.012713    1.124034    0.061317
      2          1           0       -1.711721    1.555839   -0.884246
      3          1           0       -1.484766    1.646052    0.849375
      4          1           0       -3.070496    1.327426    0.185234
      5          6           0       -1.739702   -0.404511    0.106053
      6          1           0       -2.103024   -0.798517    1.048225
      7          1           0       -2.305725   -0.891311   -0.679858
      8         14           0        0.134526   -0.921850   -0.072970
      9          1           0        0.291418   -1.829820   -1.255167
     10          1           0        0.576894   -1.677421    1.140381
     11          6           0        1.322140    0.565681   -0.274877
     12          1           0        0.988048    1.440495   -0.801610
     13          6           0        2.558989    0.553441    0.206423
     14          1           0        2.941535   -0.287444    0.753765
     15          1           0        3.222197    1.388736    0.071987
 ---------------------------------------------------------------------
 Rotational constants (GHZ):      6.6446162      2.1145758      1.7010068
 Standard basis: 6-31G (6D, 7F)
 There are    69 symmetry adapted cartesian basis functions of A   symmetry.
 There are    69 symmetry adapted basis functions of A   symmetry.
    69 basis functions,   174 primitive gaussians,    69 cartesian basis functions
    24 alpha electrons       24 beta electrons
       nuclear repulsion energy       215.3802873675 Hartrees.
 NAtoms=   15 NActive=   15 NUniq=   15 SFac= 1.00D+00 NAtFMM=   60 NAOKFM=F Big=F
 Integral buffers will be    131072 words long.
 Raffenetti 1 integral format.
 Two-electron integral symmetry is turned on.
 One-electron integrals computed using PRISM.
 NBasis=    69 RedAO= T EigKep=  7.98D-03  NBF=    69
 NBsUse=    69 1.00D-06 EigRej= -1.00D+00 NBFU=    69
 Initial guess from the checkpoint file:  "EtOCSVinyl_RHF6-31G_CCSiC2_scan_0_180.chk"
 B after Tr=     0.000000    0.000000    0.000000
         Rot=    0.999782    0.001880    0.001475   -0.020744 Ang=   2.39 deg.
 ExpMin= 7.78D-02 ExpMax= 1.61D+04 ExpMxC= 2.43D+03 IAcc=2 IRadAn=         4 AccDes= 0.00D+00
 Harris functional with IExCor=  205 and IRadAn=       4 diagonalized for initial guess.
 HarFok:  IExCor=  205 AccDes= 0.00D+00 IRadAn=         4 IDoV= 1 UseB2=F ITyADJ=14
 ICtDFT=  3500011 ScaDFX=  1.000000  1.000000  1.000000  1.000000
 FoFCou: FMM=F IPFlag=           0 FMFlag=      100000 FMFlg1=           0
         NFxFlg=           0 DoJE=T BraDBF=F KetDBF=T FulRan=T
         wScrn=  0.000000 ICntrl=     500 IOpCl=  0 I1Cent=   200000004 NGrid=           0
         NMat0=    1 NMatS0=      1 NMatT0=    0 NMatD0=    1 NMtDS0=    0 NMtDT0=    0
 Petite list used in FoFCou.
 Keep R1 ints in memory in canonical form, NReq=3806958.
 Requested convergence on RMS density matrix=1.00D-08 within 128 cycles.
 Requested convergence on MAX density matrix=1.00D-06.
 Requested convergence on             energy=1.00D-06.
 No special actions if energy rises.
 SCF Done:  E(RHF) =  -446.080904785     A.U. after   12 cycles
            NFock= 12  Conv=0.70D-08     -V/T= 1.9994
 Calling FoFJK, ICntrl=      2127 FMM=F ISym2X=0 I1Cent= 0 IOpClX= 0 NMat=1 NMatS=1 NMatT=0.
 ***** Axes restored to original set *****
 -------------------------------------------------------------------
 Center     Atomic                   Forces (Hartrees/Bohr)
 Number     Number              X              Y              Z
 -------------------------------------------------------------------
      1        6           0.002061323    0.006573884   -0.003742852
      2        1           0.001132499    0.000051394    0.001291968
      3        1           0.000839711   -0.000514196   -0.000389567
      4        1          -0.000468680    0.000588810   -0.000583548
      5        6           0.003209659   -0.008422770    0.004054311
      6        1          -0.000200060    0.001166598   -0.001003684
      7        1           0.000064326    0.001114346   -0.000344044
      8       14          -0.005414595   -0.003833202    0.003634694
      9        1          -0.001057630    0.000675628   -0.000265482
     10        1           0.000405302    0.001053316   -0.000193365
     11        6          -0.001828964    0.003879398   -0.004045085
     12        1          -0.001337344    0.000472782    0.002487150
     13        6          -0.002095819   -0.001521841    0.001047616
     14        1           0.002493437   -0.001395547   -0.000628327
     15        1           0.002196834    0.000111402   -0.001319785
 -------------------------------------------------------------------
 Cartesian Forces:  Max     0.008422770 RMS     0.002556003

 GradGradGradGradGradGradGradGradGradGradGradGradGradGradGradGradGradGrad
 Berny optimization.
 Using GEDIIS/GDIIS optimizer.
 FormGI is forming the generalized inverse of G from B-inverse, IUseBI=4.
 Internal  Forces:  Max     0.008275452 RMS     0.001740571
 Search for a local minimum.
 Step number   2 out of a maximum of   76 on scan point     1 out of    19
 All quantities printed in internal units (Hartrees-Bohrs-Radians)
 Mixed Optimization -- RFO/linear search
 Update second derivatives using D2CorX and points    1    2
 DE= -6.23D-03 DEPred=-7.05D-03 R= 8.84D-01
 TightC=F SS=  1.41D+00  RLast= 3.06D-01 DXNew= 5.0454D-01 9.1800D-01
 Trust test= 8.84D-01 RLast= 3.06D-01 DXMaxT set to 5.05D-01
 ITU=  1  0
 Use linear search instead of GDIIS.
     Eigenvalues ---    0.00237   0.00239   0.01204   0.01396   0.02679
     Eigenvalues ---    0.02684   0.03541   0.04791   0.05211   0.05335
     Eigenvalues ---    0.05453   0.08623   0.09509   0.11389   0.12684
     Eigenvalues ---    0.14707   0.16000   0.16000   0.16000   0.16000
     Eigenvalues ---    0.16251   0.17170   0.17810   0.18253   0.18706
     Eigenvalues ---    0.21312   0.21991   0.23230   0.30548   0.36499
     Eigenvalues ---    0.37230   0.37230   0.37230   0.37230   0.37230
     Eigenvalues ---    0.37230   0.37505   0.559071000.000001000.00000
     Eigenvalues --- 1000.000001000.000001000.000001000.000001000.00000
     Eigenvalues --- 1000.000001000.000001000.000001000.000001000.00000
     Eigenvalues --- 1000.000001000.000001000.000001000.000001000.00000
     Eigenvalues --- 1000.000001000.000001000.000001000.000001000.00000
     Eigenvalues --- 1000.000001000.000001000.000001000.000001000.00000
     Eigenvalues --- 1000.00000
 RFO step:  Lambda=-1.76675073D-03 EMin= 2.36690150D-03
 Quartic linear search produced a step of  0.01937.
 Iteration  1 RMS(Cart)=  0.09501605 RMS(Int)=  0.00503863
 Iteration  2 RMS(Cart)=  0.00699929 RMS(Int)=  0.00002844
 Iteration  3 RMS(Cart)=  0.00002216 RMS(Int)=  0.00001932
 Iteration  4 RMS(Cart)=  0.00000000 RMS(Int)=  0.00001932
 Iteration  1 RMS(Cart)=  0.00000230 RMS(Int)=  0.00000153
 Iteration  2 RMS(Cart)=  0.00000150 RMS(Int)=  0.00000169
 Iteration  3 RMS(Cart)=  0.00000098 RMS(Int)=  0.00000194
 Variable       Old X    -DE/DX   Delta X   Delta X   Delta X     New X
                                 (Linear)    (Quad)   (Total)
    R1        2.04505   0.00157   0.00045   0.00548   0.00593   2.05098
    R2        2.04603   0.00087   0.00047   0.00366   0.00412   2.05015
    R3        2.04896   0.00045   0.00052   0.00268   0.00320   2.05216
    R4        2.93546  -0.00828   0.00049  -0.02775  -0.02726   2.90820
    R5        2.04835   0.00103   0.00051   0.00420   0.00471   2.05306
    R6        2.04843   0.00071   0.00051   0.00336   0.00387   2.05229
    R7        3.68977  -0.00669   0.00046  -0.03674  -0.03628   3.65349
    R8        2.83246   0.00015   0.00106   0.00381   0.00487   2.83733
    R9        2.82752   0.00035   0.00096   0.00461   0.00557   2.83310
   R10        3.61721  -0.00249  -0.00095  -0.01683  -0.01777   3.59944
   R11        2.03035   0.00230   0.00016   0.00667   0.00683   2.03718
   R12        2.50814   0.00351  -0.00102   0.00371   0.00268   2.51082
   R13        2.02916   0.00100   0.00014   0.00308   0.00322   2.03238
   R14        2.03146   0.00042   0.00018   0.00163   0.00182   2.03328
    A1        1.88385   0.00014  -0.00052  -0.00285  -0.00339   1.88045
    A2        1.87166   0.00084  -0.00075   0.00501   0.00425   1.87592
    A3        1.94863  -0.00037   0.00074  -0.00049   0.00023   1.94887
    A4        1.87767   0.00068  -0.00064   0.00286   0.00221   1.87988
    A5        1.94741  -0.00035   0.00071  -0.00120  -0.00050   1.94691
    A6        1.93131  -0.00085   0.00040  -0.00297  -0.00257   1.92874
    A7        1.90054   0.00099  -0.00020   0.00889   0.00870   1.90925
    A8        1.90631   0.00079  -0.00008   0.00596   0.00587   1.91218
    A9        2.01173  -0.00115   0.00196   0.00126   0.00320   2.01493
   A10        1.86704  -0.00056  -0.00084  -0.00894  -0.00985   1.85720
   A11        1.88087   0.00000  -0.00058  -0.00312  -0.00375   1.87712
   A12        1.89206  -0.00006  -0.00036  -0.00510  -0.00552   1.88654
   A13        1.91059  -0.00067   0.00000  -0.00797  -0.00800   1.90259
   A14        1.92116   0.00022   0.00020   0.00007   0.00026   1.92142
   A15        1.98157  -0.00104   0.00137   0.00077   0.00214   1.98371
   A16        1.87837  -0.00049  -0.00062  -0.00920  -0.00988   1.86850
   A17        1.89929   0.00143  -0.00022   0.01150   0.01127   1.91057
   A18        1.86976   0.00060  -0.00079   0.00459   0.00378   1.87354
   A19        2.08465  -0.00304  -0.00019  -0.01657  -0.01676   2.06789
   A20        2.13266   0.00349   0.00074   0.01797   0.01871   2.15137
   A21        2.06583  -0.00045  -0.00055  -0.00145  -0.00200   2.06383
   A22        2.12241   0.00202   0.00054   0.01417   0.01470   2.13711
   A23        2.12046   0.00154   0.00050   0.01103   0.01152   2.13198
   A24        2.04030  -0.00356  -0.00105  -0.02514  -0.02620   2.01410
    D1       -3.09129  -0.00029   0.00097   0.00694   0.00794  -3.08335
    D2       -1.05807   0.00004  -0.00021   0.00455   0.00433  -1.05373
    D3        1.07645  -0.00024   0.00057   0.00338   0.00395   1.08040
    D4        1.08211   0.00003   0.00068   0.01178   0.01247   1.09457
    D5        3.11532   0.00035  -0.00051   0.00939   0.00887   3.12419
    D6       -1.03335   0.00007   0.00027   0.00822   0.00848  -1.02486
    D7       -1.00797  -0.00003   0.00076   0.01096   0.01173  -0.99624
    D8        1.02524   0.00030  -0.00043   0.00856   0.00813   1.03337
    D9       -3.12343   0.00001   0.00035   0.00740   0.00775  -3.11568
   D10       -2.12611  -0.00038  -0.00061  -0.00952  -0.01012  -2.13623
   D11        2.09578   0.00049   0.00003   0.00646   0.00649   2.10227
   D12        0.00000   0.00026   0.00000   0.00000   0.00000   0.00000
   D13        2.03099  -0.00088  -0.00123  -0.01951  -0.02070   2.01029
   D14       -0.03030  -0.00001  -0.00059  -0.00353  -0.00409  -0.03439
   D15       -2.12609  -0.00024  -0.00061  -0.00999  -0.01058  -2.13667
   D16        0.01602  -0.00019   0.00031  -0.00479  -0.00449   0.01153
   D17       -2.04527   0.00068   0.00095   0.01119   0.01212  -2.03315
   D18        2.14213   0.00044   0.00092   0.00473   0.00563   2.14776
   D19       -0.58521  -0.00057  -0.00119  -0.18509  -0.18629  -0.77150
   D20        2.56627  -0.00052  -0.00100  -0.17985  -0.18088   2.38539
   D21        1.54717  -0.00110  -0.00046  -0.18641  -0.18686   1.36031
   D22       -1.58453  -0.00104  -0.00027  -0.18117  -0.18145  -1.76598
   D23       -2.70990  -0.00062  -0.00178  -0.18889  -0.19065  -2.90055
   D24        0.44158  -0.00057  -0.00159  -0.18366  -0.18524   0.25634
   D25       -0.02615  -0.00010  -0.00051  -0.00612  -0.00664  -0.03279
   D26        3.12311  -0.00035  -0.00036  -0.01463  -0.01500   3.10810
   D27        3.12523  -0.00003  -0.00032  -0.00086  -0.00116   3.12407
   D28       -0.00870  -0.00028  -0.00017  -0.00937  -0.00952  -0.01822
         Item               Value     Threshold  Converged?
 Maximum Force            0.008275     0.000450     NO 
 RMS     Force            0.001753     0.000300     NO 
 Maximum Displacement     0.331698     0.001800     NO 
 RMS     Displacement     0.095693     0.001200     NO 
 Predicted change in Energy=-1.044047D-03
 GradGradGradGradGradGradGradGradGradGradGradGradGradGradGradGradGradGrad

                          Input orientation:                          
 ---------------------------------------------------------------------
 Center     Atomic      Atomic             Coordinates (Angstroms)
 Number     Number       Type             X           Y           Z
 ---------------------------------------------------------------------
      1          6           0       -3.948752    0.149476    1.989565
      2          1           0       -3.647507    0.110842    3.031534
      3          1           0       -3.563105   -0.738976    1.500768
      4          1           0       -5.033107    0.097699    1.961337
      5          6           0       -3.452202    1.433586    1.301906
      6          1           0       -3.822856    1.462550    0.281064
      7          1           0       -3.870518    2.300454    1.804903
      8         14           0       -1.532185    1.648925    1.231345
      9          1           0       -1.159765    2.939308    1.902584
     10          1           0       -1.077052    1.747186   -0.193727
     11          6           0       -0.572062    0.214373    2.036489
     12          1           0       -0.913538   -0.163487    2.986628
     13          6           0        0.509371   -0.334256    1.493466
     14          1           0        0.899335   -0.020737    0.541465
     15          1           0        1.055784   -1.124085    1.978552
 ---------------------------------------------------------------------
                    Distance matrix (angstroms):
                    1          2          3          4          5
     1  C    0.000000
     2  H    1.085330   0.000000
     3  H    1.084893   1.752872   0.000000
     4  H    1.085957   1.750823   1.753013   0.000000
     5  C    1.538952   2.186186   2.184461   2.172258   0.000000
     6  H    2.158468   3.069682   2.530190   2.480089   1.086435
     7  H    2.160306   2.519673   3.070038   2.495639   1.086027
     8  Si   2.943305   3.175054   3.146315   3.898159   1.933343
     9  H    3.945780   3.932379   4.412173   4.804266   2.807718
    10  H    3.945390   4.437022   3.902918   4.797445   2.824287
    11  C    3.377640   3.234068   3.184683   4.463203   3.212677
    12  H    3.210079   2.748065   3.091791   4.253267   3.440020
    13  C    4.511649   4.454594   4.092544   5.578938   4.342352
    14  H    5.062600   5.185705   4.620552   6.101142   4.650720
    15  H    5.164055   4.975416   4.659477   6.210285   5.226994
                    6          7          8          9         10
     6  H    0.000000
     7  H    1.739666   0.000000
     8  Si   2.486955   2.494245   0.000000
     9  H    3.449956   2.786730   1.501448   0.000000
    10  H    2.801051   3.479092   1.499210   2.412989   0.000000
    11  C    3.899631   3.909626   1.904739   2.790805   2.752887
    12  H    4.292808   4.026314   2.597803   3.295923   3.713766
    13  C    4.844236   5.120754   2.858263   3.697244   3.113801
    14  H    4.956515   5.453045   3.029191   3.854141   2.751756
    15  H    5.776961   6.002172   3.865939   4.628778   4.184731
                   11         12         13         14         15
    11  C    0.000000
    12  H    1.078030   0.000000
    13  C    1.328671   2.069629   0.000000
    14  H    2.110778   3.047246   1.075487   0.000000
    15  H    2.108248   2.411886   1.075967   1.818536   0.000000
 Stoichiometry    C4H10Si
 Framework group  C1[X(C4H10Si)]
 Deg. of freedom    39
 Full point group                 C1      NOp   1
 Largest Abelian subgroup         C1      NOp   1
 Largest concise Abelian subgroup C1      NOp   1
                         Standard orientation:                         
 ---------------------------------------------------------------------
 Center     Atomic      Atomic             Coordinates (Angstroms)
 Number     Number       Type             X           Y           Z
 ---------------------------------------------------------------------
      1          6           0       -1.956902    1.150903    0.060373
      2          1           0       -1.674428    1.552895   -0.907384
      3          1           0       -1.387054    1.679680    0.817117
      4          1           0       -3.006561    1.381893    0.215809
      5          6           0       -1.722361   -0.368246    0.134886
      6          1           0       -2.071158   -0.740472    1.094120
      7          1           0       -2.319999   -0.866022   -0.623074
      8         14           0        0.113081   -0.936890   -0.078682
      9          1           0        0.198529   -1.889107   -1.236407
     10          1           0        0.565753   -1.684141    1.139651
     11          6           0        1.332395    0.501362   -0.348377
     12          1           0        1.057743    1.286422   -1.034231
     13          6           0        2.513993    0.577817    0.254404
     14          1           0        2.849377   -0.159089    0.962329
     15          1           0        3.201915    1.383386    0.065915
 ---------------------------------------------------------------------
 Rotational constants (GHZ):      6.4544074      2.1663719      1.7410493
 Standard basis: 6-31G (6D, 7F)
 There are    69 symmetry adapted cartesian basis functions of A   symmetry.
 There are    69 symmetry adapted basis functions of A   symmetry.
    69 basis functions,   174 primitive gaussians,    69 cartesian basis functions
    24 alpha electrons       24 beta electrons
       nuclear repulsion energy       216.2820632485 Hartrees.
 NAtoms=   15 NActive=   15 NUniq=   15 SFac= 1.00D+00 NAtFMM=   60 NAOKFM=F Big=F
 Integral buffers will be    131072 words long.
 Raffenetti 1 integral format.
 Two-electron integral symmetry is turned on.
 One-electron integrals computed using PRISM.
 NBasis=    69 RedAO= T EigKep=  8.08D-03  NBF=    69
 NBsUse=    69 1.00D-06 EigRej= -1.00D+00 NBFU=    69
 Initial guess from the checkpoint file:  "EtOCSVinyl_RHF6-31G_CCSiC2_scan_0_180.chk"
 B after Tr=     0.000000    0.000000    0.000000
         Rot=    0.999911    0.011869   -0.000261    0.006039 Ang=   1.53 deg.
 ExpMin= 7.78D-02 ExpMax= 1.61D+04 ExpMxC= 2.43D+03 IAcc=2 IRadAn=         4 AccDes= 0.00D+00
 Harris functional with IExCor=  205 and IRadAn=       4 diagonalized for initial guess.
 HarFok:  IExCor=  205 AccDes= 0.00D+00 IRadAn=         4 IDoV= 1 UseB2=F ITyADJ=14
 ICtDFT=  3500011 ScaDFX=  1.000000  1.000000  1.000000  1.000000
 FoFCou: FMM=F IPFlag=           0 FMFlag=      100000 FMFlg1=           0
         NFxFlg=           0 DoJE=T BraDBF=F KetDBF=T FulRan=T
         wScrn=  0.000000 ICntrl=     500 IOpCl=  0 I1Cent=   200000004 NGrid=           0
         NMat0=    1 NMatS0=      1 NMatT0=    0 NMatD0=    1 NMtDS0=    0 NMtDT0=    0
 Petite list used in FoFCou.
 Keep R1 ints in memory in canonical form, NReq=3807046.
 Requested convergence on RMS density matrix=1.00D-08 within 128 cycles.
 Requested convergence on MAX density matrix=1.00D-06.
 Requested convergence on             energy=1.00D-06.
 No special actions if energy rises.
 SCF Done:  E(RHF) =  -446.082120088     A.U. after   12 cycles
            NFock= 12  Conv=0.65D-08     -V/T= 1.9994
 Calling FoFJK, ICntrl=      2127 FMM=F ISym2X=0 I1Cent= 0 IOpClX= 0 NMat=1 NMatS=1 NMatT=0.
 ***** Axes restored to original set *****
 -------------------------------------------------------------------
 Center     Atomic                   Forces (Hartrees/Bohr)
 Number     Number              X              Y              Z
 -------------------------------------------------------------------
      1        6          -0.000404807    0.000545532   -0.000443893
      2        1          -0.000083073   -0.000108341   -0.000578287
      3        1          -0.000152528    0.000392650    0.000493331
      4        1           0.000733629   -0.000320950    0.000227123
      5        6          -0.000307508   -0.001005390    0.000156537
      6        1          -0.000043331    0.000283979    0.000459876
      7        1           0.000087989   -0.000167369   -0.000450064
      8       14           0.000293096    0.000474168   -0.000168429
      9        1          -0.000428628   -0.000666041    0.000178255
     10        1           0.000250088    0.000171321    0.000598288
     11        6          -0.000007373    0.000255893   -0.001192778
     12        1           0.000316186    0.001117951    0.000641239
     13        6           0.000116843   -0.001030697    0.000064593
     14        1          -0.000110934    0.000284173    0.000192526
     15        1          -0.000259650   -0.000226879   -0.000178317
 -------------------------------------------------------------------
 Cartesian Forces:  Max     0.001192778 RMS     0.000467752

 GradGradGradGradGradGradGradGradGradGradGradGradGradGradGradGradGradGrad
 Berny optimization.
 Using GEDIIS/GDIIS optimizer.
 FormGI is forming the generalized inverse of G from B-inverse, IUseBI=4.
 Internal  Forces:  Max     0.001131392 RMS     0.000376658
 Search for a local minimum.
 Step number   3 out of a maximum of   76 on scan point     1 out of    19
 All quantities printed in internal units (Hartrees-Bohrs-Radians)
 Mixed Optimization -- En-DIIS/RFO-DIIS
 Update second derivatives using D2CorX and points    2    3
 DE= -1.22D-03 DEPred=-1.04D-03 R= 1.16D+00
 TightC=F SS=  1.41D+00  RLast= 4.61D-01 DXNew= 8.4853D-01 1.3837D+00
 Trust test= 1.16D+00 RLast= 4.61D-01 DXMaxT set to 8.49D-01
 ITU=  1  1  0
 Use linear search instead of GDIIS.
     Eigenvalues ---    0.00160   0.00238   0.01214   0.01387   0.02683
     Eigenvalues ---    0.02730   0.03504   0.04735   0.05282   0.05374
     Eigenvalues ---    0.05462   0.08682   0.09568   0.11426   0.12720
     Eigenvalues ---    0.15019   0.16000   0.16000   0.16000   0.16096
     Eigenvalues ---    0.16372   0.17275   0.18252   0.18341   0.19194
     Eigenvalues ---    0.21052   0.21985   0.22998   0.31373   0.37030
     Eigenvalues ---    0.37230   0.37230   0.37230   0.37230   0.37230
     Eigenvalues ---    0.37307   0.37399   0.562381000.000001000.00000
     Eigenvalues --- 1000.000001000.000001000.000001000.000001000.00000
     Eigenvalues --- 1000.000001000.000001000.000001000.000001000.00000
     Eigenvalues --- 1000.000001000.000001000.000001000.000001000.00000
     Eigenvalues --- 1000.000001000.000001000.000001000.000001000.00000
     Eigenvalues --- 1000.000001000.000001000.000001000.000001000.00000
     Eigenvalues --- 1000.00000
 RFO step:  Lambda=-5.47232700D-04 EMin= 1.60454853D-03
 Quartic linear search produced a step of  0.48573.
 Iteration  1 RMS(Cart)=  0.10281398 RMS(Int)=  0.01553933
 Iteration  2 RMS(Cart)=  0.02659026 RMS(Int)=  0.00037385
 Iteration  3 RMS(Cart)=  0.00050889 RMS(Int)=  0.00000812
 Iteration  4 RMS(Cart)=  0.00000017 RMS(Int)=  0.00000812
 Iteration  1 RMS(Cart)=  0.00000061 RMS(Int)=  0.00000040
 Variable       Old X    -DE/DX   Delta X   Delta X   Delta X     New X
                                 (Linear)    (Quad)   (Total)
    R1        2.05098  -0.00057   0.00288  -0.00349  -0.00061   2.05036
    R2        2.05015  -0.00060   0.00200  -0.00311  -0.00111   2.04904
    R3        2.05216  -0.00072   0.00155  -0.00332  -0.00176   2.05040
    R4        2.90820  -0.00059  -0.01324   0.00437  -0.00887   2.89933
    R5        2.05306  -0.00041   0.00229  -0.00254  -0.00025   2.05282
    R6        2.05229  -0.00038   0.00188  -0.00219  -0.00031   2.05198
    R7        3.65349   0.00021  -0.01762   0.01131  -0.00631   3.64717
    R8        2.83733  -0.00060   0.00237  -0.00537  -0.00300   2.83433
    R9        2.83310  -0.00048   0.00271  -0.00469  -0.00199   2.83111
   R10        3.59944  -0.00047  -0.00863   0.00044  -0.00819   3.59124
   R11        2.03718   0.00007   0.00332  -0.00142   0.00190   2.03908
   R12        2.51082   0.00016   0.00130  -0.00069   0.00061   2.51144
   R13        2.03238  -0.00013   0.00156  -0.00125   0.00031   2.03269
   R14        2.03328  -0.00005   0.00088  -0.00056   0.00032   2.03360
    A1        1.88045  -0.00020  -0.00165  -0.00334  -0.00500   1.87546
    A2        1.87592  -0.00022   0.00207  -0.00263  -0.00057   1.87535
    A3        1.94887  -0.00007   0.00011  -0.00112  -0.00101   1.94786
    A4        1.87988  -0.00026   0.00107  -0.00158  -0.00051   1.87937
    A5        1.94691   0.00011  -0.00024   0.00104   0.00079   1.94770
    A6        1.92874   0.00059  -0.00125   0.00724   0.00599   1.93472
    A7        1.90925   0.00016   0.00423  -0.00056   0.00366   1.91291
    A8        1.91218   0.00019   0.00285   0.00039   0.00324   1.91542
    A9        2.01493  -0.00036   0.00155  -0.00143   0.00012   2.01505
   A10        1.85720  -0.00023  -0.00478  -0.00228  -0.00709   1.85010
   A11        1.87712   0.00017  -0.00182   0.00245   0.00060   1.87771
   A12        1.88654   0.00007  -0.00268   0.00137  -0.00132   1.88522
   A13        1.90259   0.00022  -0.00389   0.00255  -0.00136   1.90123
   A14        1.92142   0.00034   0.00013   0.00428   0.00440   1.92581
   A15        1.98371  -0.00073   0.00104  -0.00547  -0.00443   1.97928
   A16        1.86850  -0.00003  -0.00480   0.00514   0.00033   1.86883
   A17        1.91057   0.00010   0.00548  -0.00552  -0.00005   1.91052
   A18        1.87354   0.00013   0.00183  -0.00043   0.00141   1.87494
   A19        2.06789  -0.00108  -0.00814  -0.00378  -0.01192   2.05597
   A20        2.15137   0.00113   0.00909   0.00266   0.01174   2.16311
   A21        2.06383  -0.00005  -0.00097   0.00114   0.00017   2.06399
   A22        2.13711  -0.00033   0.00714  -0.00649   0.00064   2.13775
   A23        2.13198   0.00014   0.00560  -0.00153   0.00405   2.13603
   A24        2.01410   0.00019  -0.01272   0.00803  -0.00470   2.00940
    D1       -3.08335  -0.00004   0.00385   0.00010   0.00396  -3.07940
    D2       -1.05373  -0.00011   0.00211  -0.00275  -0.00065  -1.05438
    D3        1.08040  -0.00013   0.00192  -0.00167   0.00024   1.08064
    D4        1.09457   0.00018   0.00606   0.00443   0.01050   1.10507
    D5        3.12419   0.00012   0.00431   0.00159   0.00589   3.13008
    D6       -1.02486   0.00009   0.00412   0.00267   0.00679  -1.01808
    D7       -0.99624   0.00004   0.00570   0.00089   0.00659  -0.98965
    D8        1.03337  -0.00003   0.00395  -0.00196   0.00199   1.03536
    D9       -3.11568  -0.00005   0.00376  -0.00088   0.00288  -3.11280
   D10       -2.13623   0.00020  -0.00492   0.00899   0.00408  -2.13215
   D11        2.10227  -0.00009   0.00315  -0.00119   0.00196   2.10423
   D12        0.00000  -0.00001   0.00000   0.00000   0.00000   0.00000
   D13        2.01029   0.00010  -0.01005   0.00882  -0.00122   2.00908
   D14       -0.03439  -0.00018  -0.00199  -0.00136  -0.00334  -0.03773
   D15       -2.13667  -0.00011  -0.00514  -0.00017  -0.00530  -2.14196
   D16        0.01153   0.00025  -0.00218   0.00956   0.00738   0.01891
   D17       -2.03315  -0.00004   0.00589  -0.00062   0.00525  -2.02790
   D18        2.14776   0.00004   0.00273   0.00057   0.00330   2.15106
   D19       -0.77150  -0.00049  -0.09049  -0.15366  -0.24414  -1.01565
   D20        2.38539  -0.00049  -0.08786  -0.15543  -0.24330   2.14209
   D21        1.36031  -0.00064  -0.09076  -0.15823  -0.24899   1.11133
   D22       -1.76598  -0.00064  -0.08813  -0.16001  -0.24814  -2.01412
   D23       -2.90055  -0.00055  -0.09261  -0.15526  -0.24786   3.13478
   D24        0.25634  -0.00055  -0.08998  -0.15703  -0.24701   0.00933
   D25       -0.03279   0.00018  -0.00323   0.01121   0.00798  -0.02481
   D26        3.10810   0.00033  -0.00729   0.02120   0.01390   3.12201
   D27        3.12407   0.00019  -0.00056   0.00948   0.00893   3.13300
   D28       -0.01822   0.00033  -0.00463   0.01947   0.01485  -0.00337
         Item               Value     Threshold  Converged?
 Maximum Force            0.001131     0.000450     NO 
 RMS     Force            0.000380     0.000300     NO 
 Maximum Displacement     0.430401     0.001800     NO 
 RMS     Displacement     0.127165     0.001200     NO 
 Predicted change in Energy=-5.823148D-04
 GradGradGradGradGradGradGradGradGradGradGradGradGradGradGradGradGradGrad

                          Input orientation:                          
 ---------------------------------------------------------------------
 Center     Atomic      Atomic             Coordinates (Angstroms)
 Number     Number       Type             X           Y           Z
 ---------------------------------------------------------------------
      1          6           0       -3.899784    0.119126    1.953429
      2          1           0       -3.622636    0.081223    3.001756
      3          1           0       -3.466180   -0.749623    1.470745
      4          1           0       -4.979076    0.022233    1.898513
      5          6           0       -3.434237    1.423290    1.292845
      6          1           0       -3.782152    1.455211    0.264257
      7          1           0       -3.894333    2.271405    1.790951
      8         14           0       -1.525322    1.707028    1.271783
      9          1           0       -1.217615    2.998729    1.969210
     10          1           0       -1.034114    1.840009   -0.137298
     11          6           0       -0.543713    0.298188    2.086125
     12          1           0       -0.762049    0.062707    3.116269
     13          6           0        0.404280   -0.399084    1.468591
     14          1           0        0.671576   -0.226704    0.441037
     15          1           0        0.957192   -1.180880    1.959664
 ---------------------------------------------------------------------
                    Distance matrix (angstroms):
                    1          2          3          4          5
     1  C    0.000000
     2  H    1.085005   0.000000
     3  H    1.084307   1.748936   0.000000
     4  H    1.085023   1.749444   1.751458   0.000000
     5  C    1.534258   2.181058   2.180417   2.171710   0.000000
     6  H    2.156911   3.067114   2.533130   2.481300   1.086304
     7  H    2.158410   2.517293   3.067973   2.499403   1.085862
     8  Si   2.936689   3.167771   3.137140   3.893551   1.930001
     9  H    3.935275   3.919454   4.399392   4.797199   2.802301
    10  H    3.942669   4.432542   3.899608   4.797037   2.824810
    11  C    3.363463   3.219506   3.165029   4.447898   3.201604
    12  H    3.346754   2.862938   3.268020   4.389520   3.509508
    13  C    4.362176   4.335590   3.886301   5.416905   4.252780
    14  H    4.827449   5.009227   4.295901   5.840897   4.506191
    15  H    5.027949   4.863506   4.471157   6.057269   5.148883
                    6          7          8          9         10
     6  H    0.000000
     7  H    1.734806   0.000000
     8  Si   2.484311   2.490034   0.000000
     9  H    3.444729   2.779495   1.499860   0.000000
    10  H    2.803752   3.476362   1.498158   2.411157   0.000000
    11  C    3.891707   3.899662   1.900405   2.785809   2.749784
    12  H    4.381103   4.055369   2.586215   3.184888   3.717327
    13  C    4.734452   5.070848   2.863180   3.798196   3.108278
    14  H    4.764009   5.376833   3.042337   4.038288   2.741378
    15  H    5.681968   5.956847   3.869893   4.711582   4.181904
                   11         12         13         14         15
    11  C    0.000000
    12  H    1.079036   0.000000
    13  C    1.328995   2.070849   0.000000
    14  H    2.111576   3.048918   1.075652   0.000000
    15  H    2.111007   2.416616   1.076137   1.816110   0.000000
 Stoichiometry    C4H10Si
 Framework group  C1[X(C4H10Si)]
 Deg. of freedom    39
 Full point group                 C1      NOp   1
 Largest Abelian subgroup         C1      NOp   1
 Largest concise Abelian subgroup C1      NOp   1
                         Standard orientation:                         
 ---------------------------------------------------------------------
 Center     Atomic      Atomic             Coordinates (Angstroms)
 Number     Number       Type             X           Y           Z
 ---------------------------------------------------------------------
      1          6           0       -1.882937    1.195526    0.033416
      2          1           0       -1.612809    1.542467   -0.958501
      3          1           0       -1.267026    1.733797    0.745202
      4          1           0       -2.914925    1.481373    0.208254
      5          6           0       -1.706365   -0.322545    0.168438
      6          1           0       -2.044432   -0.642893    1.149838
      7          1           0       -2.343780   -0.831217   -0.548536
      8         14           0        0.095449   -0.972367   -0.068423
      9          1           0        0.109487   -1.970844   -1.187541
     10          1           0        0.557621   -1.686987    1.164538
     11          6           0        1.352903    0.405123   -0.432934
     12          1           0        1.182461    1.025790   -1.298983
     13          6           0        2.434767    0.636048    0.303592
     14          1           0        2.666684    0.064186    1.184623
     15          1           0        3.140233    1.412551    0.063946
 ---------------------------------------------------------------------
 Rotational constants (GHZ):      6.0795338      2.2455051      1.7894673
 Standard basis: 6-31G (6D, 7F)
 There are    69 symmetry adapted cartesian basis functions of A   symmetry.
 There are    69 symmetry adapted basis functions of A   symmetry.
    69 basis functions,   174 primitive gaussians,    69 cartesian basis functions
    24 alpha electrons       24 beta electrons
       nuclear repulsion energy       216.8706823166 Hartrees.
 NAtoms=   15 NActive=   15 NUniq=   15 SFac= 1.00D+00 NAtFMM=   60 NAOKFM=F Big=F
 Integral buffers will be    131072 words long.
 Raffenetti 1 integral format.
 Two-electron integral symmetry is turned on.
 One-electron integrals computed using PRISM.
 NBasis=    69 RedAO= T EigKep=  8.14D-03  NBF=    69
 NBsUse=    69 1.00D-06 EigRej= -1.00D+00 NBFU=    69
 Initial guess from the checkpoint file:  "EtOCSVinyl_RHF6-31G_CCSiC2_scan_0_180.chk"
 B after Tr=     0.000000    0.000000    0.000000
         Rot=    0.999717    0.022732    0.001967    0.006797 Ang=   2.73 deg.
 ExpMin= 7.78D-02 ExpMax= 1.61D+04 ExpMxC= 2.43D+03 IAcc=2 IRadAn=         4 AccDes= 0.00D+00
 Harris functional with IExCor=  205 and IRadAn=       4 diagonalized for initial guess.
 HarFok:  IExCor=  205 AccDes= 0.00D+00 IRadAn=         4 IDoV= 1 UseB2=F ITyADJ=14
 ICtDFT=  3500011 ScaDFX=  1.000000  1.000000  1.000000  1.000000
 FoFCou: FMM=F IPFlag=           0 FMFlag=      100000 FMFlg1=           0
         NFxFlg=           0 DoJE=T BraDBF=F KetDBF=T FulRan=T
         wScrn=  0.000000 ICntrl=     500 IOpCl=  0 I1Cent=   200000004 NGrid=           0
         NMat0=    1 NMatS0=      1 NMatT0=    0 NMatD0=    1 NMtDS0=    0 NMtDT0=    0
 Petite list used in FoFCou.
 Keep R1 ints in memory in canonical form, NReq=3807170.
 Requested convergence on RMS density matrix=1.00D-08 within 128 cycles.
 Requested convergence on MAX density matrix=1.00D-06.
 Requested convergence on             energy=1.00D-06.
 No special actions if energy rises.
 SCF Done:  E(RHF) =  -446.082665746     A.U. after   13 cycles
            NFock= 13  Conv=0.49D-08     -V/T= 1.9993
 Calling FoFJK, ICntrl=      2127 FMM=F ISym2X=0 I1Cent= 0 IOpClX= 0 NMat=1 NMatS=1 NMatT=0.
 ***** Axes restored to original set *****
 -------------------------------------------------------------------
 Center     Atomic                   Forces (Hartrees/Bohr)
 Number     Number              X              Y              Z
 -------------------------------------------------------------------
      1        6          -0.000163381   -0.001497780    0.000851023
      2        1          -0.000079035   -0.000045907   -0.000186081
      3        1          -0.000103441    0.000123548    0.000089127
      4        1           0.000019446    0.000052333    0.000016025
      5        6          -0.001385746    0.001438632   -0.001258420
      6        1           0.000041249   -0.000240606    0.000071840
      7        1           0.000040749   -0.000131016    0.000164833
      8       14           0.001210901    0.001209043   -0.000728540
      9        1           0.000067824   -0.000455181    0.000502001
     10        1          -0.000119578   -0.000351176    0.000050177
     11        6           0.000909038   -0.000523526    0.000441357
     12        1           0.000338505    0.000361840   -0.000161562
     13        6          -0.000092274   -0.000954430   -0.000593962
     14        1          -0.000202242    0.000834265    0.000292668
     15        1          -0.000482015    0.000179960    0.000449515
 -------------------------------------------------------------------
 Cartesian Forces:  Max     0.001497780 RMS     0.000613733

 GradGradGradGradGradGradGradGradGradGradGradGradGradGradGradGradGradGrad
 Berny optimization.
 Using GEDIIS/GDIIS optimizer.
 FormGI is forming the generalized inverse of G from B-inverse, IUseBI=4.
 Internal  Forces:  Max     0.001653822 RMS     0.000374775
 Search for a local minimum.
 Step number   4 out of a maximum of   76 on scan point     1 out of    19
 All quantities printed in internal units (Hartrees-Bohrs-Radians)
 Mixed Optimization -- En-DIIS/RFO-DIIS
 Swapping is turned off.
 Update second derivatives using D2CorX and points    3    4
 DE= -5.46D-04 DEPred=-5.82D-04 R= 9.37D-01
 TightC=F SS=  1.41D+00  RLast= 6.05D-01 DXNew= 1.4270D+00 1.8162D+00
 Trust test= 9.37D-01 RLast= 6.05D-01 DXMaxT set to 1.43D+00
 ITU=  1  1  1  0
     Eigenvalues ---    0.00179   0.00238   0.01222   0.01387   0.02683
     Eigenvalues ---    0.02726   0.03505   0.04762   0.05325   0.05352
     Eigenvalues ---    0.05417   0.08710   0.09528   0.11439   0.12753
     Eigenvalues ---    0.15351   0.16000   0.16000   0.16009   0.16044
     Eigenvalues ---    0.16369   0.17324   0.18247   0.18253   0.19202
     Eigenvalues ---    0.20969   0.22027   0.22984   0.31995   0.36953
     Eigenvalues ---    0.37226   0.37230   0.37230   0.37230   0.37230
     Eigenvalues ---    0.37274   0.37460   0.564441000.000001000.00000
     Eigenvalues --- 1000.000001000.000001000.000001000.000001000.00000
     Eigenvalues --- 1000.000001000.000001000.000001000.000001000.00000
     Eigenvalues --- 1000.000001000.000001000.000001000.000001000.00000
     Eigenvalues --- 1000.000001000.000001000.000001000.000001000.00000
     Eigenvalues --- 1000.000001000.000001000.000001000.000001000.00000
     Eigenvalues --- 1000.00000
 En-DIIS/RFO-DIIS IScMMF=        0 using points:     4    3
 RFO step:  Lambda=-2.35781360D-05.
 DidBck=F Rises=F RFO-DIIS coefs:    1.20696   -0.20696
 Iteration  1 RMS(Cart)=  0.03827078 RMS(Int)=  0.00075827
 Iteration  2 RMS(Cart)=  0.00110525 RMS(Int)=  0.00000883
 Iteration  3 RMS(Cart)=  0.00000065 RMS(Int)=  0.00000881
 Iteration  1 RMS(Cart)=  0.00000060 RMS(Int)=  0.00000038
 Variable       Old X    -DE/DX   Delta X   Delta X   Delta X     New X
                                 (Linear)    (Quad)   (Total)
    R1        2.05036  -0.00020  -0.00013  -0.00026  -0.00039   2.04997
    R2        2.04904  -0.00018  -0.00023  -0.00030  -0.00053   2.04851
    R3        2.05040  -0.00002  -0.00036   0.00020  -0.00017   2.05023
    R4        2.89933   0.00159  -0.00184   0.00545   0.00361   2.90294
    R5        2.05282  -0.00009  -0.00005  -0.00013  -0.00019   2.05263
    R6        2.05198  -0.00004  -0.00006  -0.00006  -0.00012   2.05186
    R7        3.64717   0.00165  -0.00131   0.00875   0.00744   3.65461
    R8        2.83433  -0.00014  -0.00062  -0.00063  -0.00125   2.83307
    R9        2.83111  -0.00012  -0.00041  -0.00051  -0.00092   2.83019
   R10        3.59124   0.00050  -0.00170   0.00388   0.00218   3.59343
   R11        2.03908  -0.00030   0.00039  -0.00079  -0.00039   2.03869
   R12        2.51144  -0.00065   0.00013  -0.00063  -0.00050   2.51093
   R13        2.03269  -0.00020   0.00006  -0.00048  -0.00041   2.03227
   R14        2.03360  -0.00017   0.00007  -0.00057  -0.00050   2.03310
    A1        1.87546  -0.00005  -0.00103   0.00095  -0.00009   1.87537
    A2        1.87535  -0.00002  -0.00012   0.00062   0.00050   1.87585
    A3        1.94786   0.00009  -0.00021   0.00046   0.00025   1.94811
    A4        1.87937   0.00001  -0.00011   0.00068   0.00057   1.87994
    A5        1.94770   0.00005   0.00016  -0.00016   0.00000   1.94770
    A6        1.93472  -0.00008   0.00124  -0.00242  -0.00118   1.93355
[...]
           D3          60.26587  60.15039  59.88855  59.62454  59.37778
           D4          62.36079  62.15139  61.69759  61.17825  60.71138
           D5         178.85614 178.54713 178.04201 177.51642 177.09129
           D6         -59.82639 -59.87903 -60.12022 -60.38901 -60.66964
           D7         -57.52844 -57.80489 -58.29920 -58.85093 -59.33223
           D8          58.96691  58.59086  58.04522  57.48724  57.04768
           D9        -179.71562-179.83531 179.88298 179.58181 179.28675
           D10        -21.94919 -11.66250  -1.28524   9.10604  19.35257
           D11       -140.34488-130.05044-119.65421-109.25345 -98.92564
           D12         99.99986 109.99990 119.99986 130.00009 139.99992
           D13       -145.16851-134.69155-124.01454-113.33646-102.85939
           D14         96.43580 106.92052 117.61648 128.30406 138.86241
           D15        -23.21946 -13.02915  -2.72944   7.55759  17.78797
           D16        100.26976 110.81211 121.46138 132.13975 142.55384
           D17        -18.12592  -7.57583   3.09241  13.78027  24.27564
           D18       -137.78118-127.52549-117.25351-106.96620 -96.79880
           D19        -59.29731 -58.99382 -58.79598 -58.79206 -59.03429
           D20        120.51714 120.89257 121.18158 121.27247 121.10284
           D21         61.94114  62.08300  61.99298  61.66784  61.15140
           D22       -118.24440-118.03061-118.02946-118.26762-118.71146
           D23        179.23943 179.18405 179.01346 178.72318 178.34121
           D24         -0.94611  -0.92955  -1.00898  -1.21229  -1.52165
           D25          0.32565   0.22607   0.11205   0.02694  -0.04028
           D26       -179.76832-179.87057-179.98972 179.91387 179.84043
           D27       -179.86110-179.88840-179.91059-179.90786-179.90163
           D28          0.04493   0.01496  -0.01237  -0.02094  -0.02092
                          16        17        18        19
     Eigenvalues --  -446.08458-446.08511-446.08547-446.08557
           R1           1.08531   1.08535   1.08516   1.08488
           R2           1.08420   1.08429   1.08455   1.08486
           R3           1.08488   1.08486   1.08482   1.08480
           R4           1.53680   1.53685   1.53685   1.53699
           R5           1.08696   1.08710   1.08714   1.08705
           R6           1.08614   1.08630   1.08641   1.08648
           R7           1.92655   1.92419   1.92265   1.92218
           R8           1.49931   1.49937   1.49931   1.49924
           R9           1.49728   1.49736   1.49736   1.49747
           R10          1.90057   1.90017   1.90014   1.90018
           R11          1.07913   1.07909   1.07905   1.07903
           R12          1.32862   1.32864   1.32866   1.32869
           R13          1.07534   1.07533   1.07533   1.07532
           R14          1.07577   1.07577   1.07576   1.07575
           A1         107.52082 107.58576 107.63557 107.66377
           A2         107.44186 107.43234 107.46874 107.53827
           A3         111.59919 111.55499 111.46761 111.37251
           A4         107.74954 107.71600 107.64331 107.56392
           A5         111.26536 111.27594 111.32937 111.41332
           A6         111.06778 111.08059 111.10156 111.09531
           A7         109.59839 109.68815 109.82157 109.97059
           A8         110.27785 110.28685 110.22884 110.08833
           A9         113.98757 113.74188 113.59556 113.46445
           A10        106.12299 106.17098 106.22469 106.27721
           A11        108.09057 108.21047 108.32890 108.52355
           A12        108.44340 108.44349 108.35637 108.24511
           A13        108.27136 108.28218 108.33637 108.52977
           A14        110.72501 110.43032 110.11688 109.78742
           A15        112.17717 112.16213 112.18971 112.25611
           A16        107.99465 108.03900 108.08560 108.09437
           A17        109.21612 109.37933 109.63125 109.87371
           A18        108.36327 108.46120 108.39958 108.21649
           A19        117.19476 117.24451 117.32066 117.43824
           A20        124.38140 124.35056 124.27983 124.17956
           A21        118.42370 118.40482 118.39950 118.38219
           A22        122.23372 122.24240 122.24530 122.25174
           A23        122.25023 122.24229 122.23475 122.22296
           A24        115.51594 115.51520 115.51985 115.52520
           D1        -179.42569-179.30658-178.84999-178.19983
           D2         -62.95081 -62.71505 -62.14802 -61.42839
           D3          59.29526  59.36233  59.66901  60.04909
           D4          60.47307  60.53238  60.94859  61.57043
           D5         176.94795 177.12391 177.65055 178.34186
           D6         -60.80597 -60.79871 -60.53241 -60.18065
           D7         -59.55919 -59.47314 -59.01487 -58.34461
           D8          56.91569  57.11839  57.68709  58.42683
           D9         179.16176 179.19577 179.50413 179.90432
           D10         29.41069  39.20900  48.84027  58.36119
           D11        -88.80309 -78.89549 -69.17359 -59.58911
           D12        150.00005 159.99990 170.00012 179.99986
           D13        -92.70175 -82.94226 -73.47015 -64.19369
           D14        149.08447 158.95324 168.51599 177.85600
           D15         27.88761  37.84863  47.68970  57.44497
           D16        152.65906 162.30014 171.69281-179.13558
           D17         34.44529  44.19564  53.67895  62.91412
           D18        -86.75157 -76.90896 -67.14734 -57.49691
           D19        -59.36472 -59.88063 -60.30194 -60.66464
           D20        120.77433 120.23888 119.74531 119.30472
           D21         60.67635  60.27438  60.11022  60.20277
           D22       -119.18460-119.60611-119.84253-119.82787
           D23        178.08985 177.88766 177.88568 178.01909
           D24         -1.77110  -1.99283  -2.06708  -2.01155
           D25         -0.01645   0.03168   0.12607   0.22388
           D26        179.85664 179.90401-179.99802-179.89500
           D27       -179.87581-179.84752-179.82622-179.80703
           D28         -0.00273   0.02480   0.04970   0.07409
                          Input orientation:                          
 ---------------------------------------------------------------------
 Center     Atomic      Atomic             Coordinates (Angstroms)
 Number     Number       Type             X           Y           Z
 ---------------------------------------------------------------------
      1          6           0       -4.438407    1.293347    1.965745
      2          1           0       -4.307283    2.313659    1.621180
      3          1           0       -4.491049    1.315955    3.049095
      4          1           0       -5.397927    0.945082    1.598573
      5          6           0       -3.297260    0.386473    1.478190
      6          1           0       -3.467600   -0.634933    1.808951
      7          1           0       -3.282487    0.356440    0.392225
      8         14           0       -1.562092    0.944630    2.088444
      9          1           0       -1.568958    0.967822    3.587489
     10          1           0       -1.276156    2.332123    1.603139
     11          6           0       -0.178132   -0.199234    1.466434
     12          1           0       -0.220430   -1.236464    1.760843
     13          6           0        0.829417    0.198292    0.696874
     14          1           0        0.934140    1.217223    0.369568
     15          1           0        1.596065   -0.477556    0.361129
 ---------------------------------------------------------------------
                    Distance matrix (angstroms):
                    1          2          3          4          5
     1  C    0.000000
     2  H    1.084876   0.000000
     3  H    1.084863   1.751606   0.000000
     4  H    1.084796   1.750149   1.750426   0.000000
     5  C    1.536993   2.180513   2.181011   2.177002   0.000000
     6  H    2.164559   3.071566   2.528115   2.503371   1.087054
     7  H    2.165621   2.528091   3.072499   2.505367   1.086481
     8  Si   2.899974   3.103006   3.104757   3.866989   1.922175
     9  H    3.312062   3.629886   2.991601   4.314778   2.788214
    10  H    3.348190   3.031237   3.668640   4.348897   2.808208
    11  C    4.541702   4.836162   4.837547   5.345389   3.173665
    12  H    4.922729   5.415279   5.139321   5.620672   3.490086
    13  C    5.528034   5.631590   5.923637   6.336448   4.204205
    14  H    5.605162   5.499201   6.051635   6.455973   4.452408
    15  H    6.490436   6.650423   6.891647   7.243694   5.093035
                    6          7          8          9         10
     6  H    0.000000
     7  H    1.739022   0.000000
     8  Si   2.490802   2.486541   0.000000
     9  H    3.055628   3.676912   1.499240   0.000000
    10  H    3.694348   3.065127   1.497470   2.425839   0.000000
    11  C    3.335828   3.331624   1.900175   2.792004   2.762627
    12  H    3.302767   3.713038   2.581579   3.164496   3.724814
    13  C    4.516120   4.126206   2.865800   3.834063   3.131771
    14  H    4.987747   4.303650   3.043028   4.084448   2.765882
    15  H    5.268934   4.949423   3.870426   4.745091   4.205537
                   11         12         13         14         15
    11  C    0.000000
    12  H    1.079033   0.000000
    13  C    1.328686   2.071892   0.000000
    14  H    2.108700   3.047828   1.075321   0.000000
    15  H    2.108777   2.415533   1.075753   1.819476   0.000000
 Stoichiometry    C4H10Si
 Framework group  C1[X(C4H10Si)]
 Deg. of freedom    39
 Full point group                 C1      NOp   1
 Largest Abelian subgroup         C1      NOp   1
 Largest concise Abelian subgroup C1      NOp   1
                         Standard orientation:                         
 ---------------------------------------------------------------------
 Center     Atomic      Atomic             Coordinates (Angstroms)
 Number     Number       Type             X           Y           Z
 ---------------------------------------------------------------------
      1          6           0       -2.741441    0.022969    0.206248
      2          1           0       -2.758849   -0.603088    1.092084
      3          1           0       -2.993098   -0.602359   -0.643788
      4          1           0       -3.528025    0.762344    0.312991
      5          6           0       -1.371561    0.695235    0.022303
      6          1           0       -1.389173    1.340666   -0.852223
      7          1           0       -1.154378    1.338042    0.870874
      8         14           0        0.075085   -0.555618   -0.170934
      9          1           0       -0.208003   -1.432477   -1.353600
     10          1           0        0.158031   -1.426457    1.044457
     11          6           0        1.750908    0.311350   -0.395987
     12          1           0        1.866319    0.955268   -1.254103
     13          6           0        2.779872    0.173668    0.433280
     14          1           0        2.734203   -0.454095    1.305142
     15          1           0        3.715124    0.681475    0.276178
 ---------------------------------------------------------------------
 Rotational constants (GHZ):     12.1452346      1.6057100      1.5475094

 **********************************************************************

            Population analysis using the SCF density.

 **********************************************************************

 Orbital symmetries:
       Occupied  (A) (A) (A) (A) (A) (A) (A) (A) (A) (A) (A) (A)
                 (A) (A) (A) (A) (A) (A) (A) (A) (A) (A) (A) (A)
       Virtual   (A) (A) (A) (A) (A) (A) (A) (A) (A) (A) (A) (A)
                 (A) (A) (A) (A) (A) (A) (A) (A) (A) (A) (A) (A)
                 (A) (A) (A) (A) (A) (A) (A) (A) (A) (A) (A) (A)
                 (A) (A) (A) (A) (A) (A) (A) (A) (A)
 The electronic state is 1-A.
 Alpha  occ. eigenvalues --  -68.77426 -11.23863 -11.22639 -11.21776 -11.21537
 Alpha  occ. eigenvalues --   -6.13823  -4.24369  -4.24326  -4.24257  -1.04001
 Alpha  occ. eigenvalues --   -1.02236  -0.85230  -0.78751  -0.69452  -0.62504
 Alpha  occ. eigenvalues --   -0.60749  -0.57781  -0.55197  -0.51263  -0.49707
 Alpha  occ. eigenvalues --   -0.45648  -0.43812  -0.41929  -0.36851
 Alpha virt. eigenvalues --    0.14446   0.18388   0.19890   0.23379   0.25492
 Alpha virt. eigenvalues --    0.27425   0.28955   0.29983   0.31295   0.31509
 Alpha virt. eigenvalues --    0.33304   0.33853   0.35869   0.39250   0.41198
 Alpha virt. eigenvalues --    0.43514   0.50392   0.55129   0.56921   0.71498
 Alpha virt. eigenvalues --    0.76336   0.78632   0.82068   0.83945   0.88618
 Alpha virt. eigenvalues --    0.91418   0.94741   0.96077   1.03462   1.08017
 Alpha virt. eigenvalues --    1.15648   1.19505   1.20656   1.21953   1.22904
 Alpha virt. eigenvalues --    1.24354   1.25964   1.27060   1.28440   1.30438
 Alpha virt. eigenvalues --    1.32768   1.34237   1.41064   1.52300   1.71319
          Condensed to atoms (all electrons):
               1          2          3          4          5          6
     1  C    5.125130   0.391350   0.391354   0.393956   0.240352  -0.037749
     2  H    0.391350   0.561101  -0.031723  -0.031508  -0.045103   0.004036
     3  H    0.391354  -0.031723   0.560836  -0.031459  -0.045567  -0.002478
     4  H    0.393956  -0.031508  -0.031459   0.557008  -0.041552  -0.004206
     5  C    0.240352  -0.045103  -0.045567  -0.041552   5.627118   0.377306
     6  H   -0.037749   0.004036  -0.002478  -0.004206   0.377306   0.535708
     7  H   -0.037616  -0.002406   0.003981  -0.004098   0.377568  -0.027090
     8  Si  -0.028063  -0.001661  -0.001387   0.003139   0.300671  -0.019730
     9  H    0.001030  -0.000111   0.001226  -0.000038  -0.034994  -0.001151
    10  H    0.000488   0.001083  -0.000067  -0.000028  -0.027886   0.000755
    11  C    0.000933  -0.000030  -0.000030  -0.000026  -0.029145   0.000186
    12  H    0.000004   0.000000   0.000000   0.000000   0.000367   0.000087
    13  C   -0.000001   0.000001   0.000000   0.000000  -0.000876   0.000028
    14  H    0.000001   0.000000   0.000000   0.000000  -0.000002   0.000000
    15  H    0.000000   0.000000   0.000000   0.000000  -0.000030   0.000002
               7          8          9         10         11         12
     1  C   -0.037616  -0.028063   0.001030   0.000488   0.000933   0.000004
     2  H   -0.002406  -0.001661  -0.000111   0.001083  -0.000030   0.000000
     3  H    0.003981  -0.001387   0.001226  -0.000067  -0.000030   0.000000
     4  H   -0.004098   0.003139  -0.000038  -0.000028  -0.000026   0.000000
     5  C    0.377568   0.300671  -0.034994  -0.027886  -0.029145   0.000367
     6  H   -0.027090  -0.019730  -0.001151   0.000755   0.000186   0.000087
     7  H    0.529342  -0.019082   0.000754  -0.000909   0.000198  -0.000078
     8  Si  -0.019082  11.665190   0.373059   0.379377   0.292897  -0.017026
     9  H    0.000754   0.373059   0.926484  -0.026741  -0.030107   0.000070
    10  H   -0.000909   0.379377  -0.026741   0.916657  -0.039160   0.000267
    11  C    0.000198   0.292897  -0.030107  -0.039160   5.490233   0.386338
    12  H   -0.000078  -0.017026   0.000070   0.000267   0.386338   0.492873
    13  C    0.000056  -0.009655  -0.001133   0.006971   0.562468  -0.032990
    14  H   -0.000015  -0.002412  -0.000039   0.000938  -0.045314   0.003136
    15  H    0.000000   0.002273  -0.000036   0.000110  -0.047597  -0.005167
              13         14         15
     1  C   -0.000001   0.000001   0.000000
     2  H    0.000001   0.000000   0.000000
     3  H    0.000000   0.000000   0.000000
     4  H    0.000000   0.000000   0.000000
     5  C   -0.000876  -0.000002  -0.000030
     6  H    0.000028   0.000000   0.000002
     7  H    0.000056  -0.000015   0.000000
     8  Si  -0.009655  -0.002412   0.002273
     9  H   -0.001133  -0.000039  -0.000036
    10  H    0.006971   0.000938   0.000110
    11  C    0.562468  -0.045314  -0.047597
    12  H   -0.032990   0.003136  -0.005167
    13  C    4.985342   0.398393   0.398629
    14  H    0.398393   0.508652  -0.029182
    15  H    0.398629  -0.029182   0.515566
 Mulliken charges:
               1
     1  C   -0.441168
     2  H    0.154972
     3  H    0.155314
     4  H    0.158813
     5  C   -0.698227
     6  H    0.174298
     7  H    0.179393
     8  Si   1.082410
     9  H   -0.208272
    10  H   -0.211855
    11  C   -0.541843
    12  H    0.172119
    13  C   -0.307232
    14  H    0.165845
    15  H    0.165433
 Sum of Mulliken charges =   0.00000
 Mulliken charges with hydrogens summed into heavy atoms:
               1
     1  C    0.027931
     5  C   -0.344536
     8  Si   0.662283
    11  C   -0.369724
    13  C    0.024046
 Electronic spatial extent (au):  <R**2>=            839.6241
 Charge=              0.0000 electrons
 Dipole moment (field-independent basis, Debye):
    X=              0.1374    Y=              0.7584    Z=              0.0802  Tot=              0.7749
 Quadrupole moment (field-independent basis, Debye-Ang):
   XX=            -39.7078   YY=            -43.3895   ZZ=            -41.9676
   XY=              0.6596   XZ=              0.6535   YZ=             -1.3886
 Traceless Quadrupole moment (field-independent basis, Debye-Ang):
   XX=              1.9805   YY=             -1.7012   ZZ=             -0.2793
   XY=              0.6596   XZ=              0.6535   YZ=             -1.3886
 Octapole moment (field-independent basis, Debye-Ang**2):
  XXX=              8.5476  YYY=              5.0186  ZZZ=              1.0953  XYY=             -1.1422
  XXY=              4.2476  XXZ=              3.6176  XZZ=              0.6142  YZZ=              4.4099
  YYZ=             -0.2996  XYZ=             -2.1952
 Hexadecapole moment (field-independent basis, Debye-Ang**3):
 XXXX=           -911.0776 YYYY=           -154.7031 ZZZZ=           -113.0188 XXXY=             13.2376
 XXXZ=             12.9627 YYYX=             -0.9421 YYYZ=             -2.5576 ZZZX=              0.4601
 ZZZY=             -5.3868 XXYY=           -182.5562 XXZZ=           -174.1257 YYZZ=            -45.9364
 XXYZ=             -5.8161 YYXZ=             -1.9923 ZZXY=             -0.0129
 N-N= 2.136823484628D+02 E-N=-1.481938556686D+03  KE= 4.463853343128D+02
 1\1\GINC-CORN03\Scan\RHF\6-31G\C4H10Si1\JOEBURG\07-Sep-2016\0\\# opt=m
 odredundant hf/6-31g geom=connectivity\\Title Card Required\\0,1\C,-4.
 4384074183,1.2933472271,1.9657452218\H,-4.3072825762,2.313659451,1.621
 1799946\H,-4.4910488907,1.3159549619,3.0490945502\H,-5.397927495,0.945
 0820992,1.5985725847\C,-3.2972603998,0.3864730042,1.4781902959\H,-3.46
 76003124,-0.6349325508,1.8089507385\H,-3.2824872698,0.3564395549,0.392
 2247638\Si,-1.5620923758,0.9446303228,2.0884442128\H,-1.5689582885,0.9
 678215329,3.587488843\H,-1.2761555694,2.3321226062,1.6031393411\C,-0.1
 781322134,-0.1992336072,1.4664344627\H,-0.2204300979,-1.2364640514,1.7
 608434879\C,0.8294171687,0.198292151,0.6968736275\H,0.9341395372,1.217
 2227356,0.3695676831\H,1.5960653112,-0.4775561875,0.3611285423\\Versio
 n=EM64L-G09RevD.01\State=1-A\HF=-446.0827329,-446.0829324,-446.0834108
 ,-446.084028,-446.0846262,-446.0850684,-446.0852605,-446.085165,-446.0
 84813,-446.0843104,-446.0838095,-446.0834626,-446.0833751,-446.0835773
 ,-446.0840169,-446.0845762,-446.0851065,-446.0854694,-446.0855701\RMSD
 =5.745e-09,6.200e-09,2.439e-09,2.863e-09,4.200e-09,5.196e-09,2.966e-09
 ,4.085e-09,2.778e-09,4.837e-09,4.406e-09,4.895e-09,9.523e-09,3.331e-09
 ,2.345e-09,3.531e-09,6.680e-09,7.268e-09,3.870e-09\PG=C01 [X(C4H10Si1)
 ]\\@


 IN THE FIGHT BETWEEN YOU AND THE WORLD, BACK THE WORLD

                                        -- FRANZ KAFKA
 Job cpu time:       0 days  0 hours  4 minutes 13.7 seconds.
 File lengths (MBytes):  RWF=      6 Int=      0 D2E=      0 Chk=      3 Scr=      1
 Normal termination of Gaussian 09 at Wed Sep  7 12:46:19 2016.
