 Entering Gaussian System, Link 0=g09
 Input=/afs/.ir.stanford.edu/users/j/o/joeburg/Gaussian Input/EtOCSMethyl_1Si_RHF6-31G_scan_0_180.com
 Output=/afs/.ir.stanford.edu/users/j/o/joeburg/Gaussian Input/EtOCSMethyl_1Si_RHF6-31G_scan_0_180.log
 Initial command:
 /farmshare/software/non-free/gaussian/D.01/g09D.01/l1.exe "/tmp/Gau-22096.inp" -scrdir="/tmp/"
 Entering Link 1 = /farmshare/software/non-free/gaussian/D.01/g09D.01/l1.exe PID=     22098.
  
 Copyright (c) 1988,1990,1992,1993,1995,1998,2003,2009,2013,
            Gaussian, Inc.  All Rights Reserved.
  
 This is part of the Gaussian(R) 09 program.  It is based on
 the Gaussian(R) 03 system (copyright 2003, Gaussian, Inc.),
 the Gaussian(R) 98 system (copyright 1998, Gaussian, Inc.),
 the Gaussian(R) 94 system (copyright 1995, Gaussian, Inc.),
 the Gaussian 92(TM) system (copyright 1992, Gaussian, Inc.),
 the Gaussian 90(TM) system (copyright 1990, Gaussian, Inc.),
 the Gaussian 88(TM) system (copyright 1988, Gaussian, Inc.),
 the Gaussian 86(TM) system (copyright 1986, Carnegie Mellon
 University), and the Gaussian 82(TM) system (copyright 1983,
 Carnegie Mellon University). Gaussian is a federally registered
 trademark of Gaussian, Inc.
  
 This software contains proprietary and confidential information,
 including trade secrets, belonging to Gaussian, Inc.
  
 This software is provided under written license and may be
 used, copied, transmitted, or stored only in accord with that
 written license.
  
 The following legend is applicable only to US Government
 contracts under FAR:
  
                    RESTRICTED RIGHTS LEGEND
  
 Use, reproduction and disclosure by the US Government is
 subject to restrictions as set forth in subparagraphs (a)
 and (c) of the Commercial Computer Software - Restricted
 Rights clause in FAR 52.227-19.
  
 Gaussian, Inc.
 340 Quinnipiac St., Bldg. 40, Wallingford CT 06492
  
  
 ---------------------------------------------------------------
 Warning -- This program may not be used in any manner that
 competes with the business of Gaussian, Inc. or will provide
 assistance to any competitor of Gaussian, Inc.  The licensee
 of this program is prohibited from giving any competitor of
 Gaussian, Inc. access to this program.  By using this program,
 the user acknowledges that Gaussian, Inc. is engaged in the
 business of creating and licensing software in the field of
 computational chemistry and represents and warrants to the
 licensee that it is not a competitor of Gaussian, Inc. and that
 it will not use this program in any manner prohibited above.
 ---------------------------------------------------------------
  

 Cite this work as:
 Gaussian 09, Revision D.01,
 M. J. Frisch, G. W. Trucks, H. B. Schlegel, G. E. Scuseria, 
 M. A. Robb, J. R. Cheeseman, G. Scalmani, V. Barone, B. Mennucci, 
 G. A. Petersson, H. Nakatsuji, M. Caricato, X. Li, H. P. Hratchian, 
 A. F. Izmaylov, J. Bloino, G. Zheng, J. L. Sonnenberg, M. Hada, 
 M. Ehara, K. Toyota, R. Fukuda, J. Hasegawa, M. Ishida, T. Nakajima, 
 Y. Honda, O. Kitao, H. Nakai, T. Vreven, J. A. Montgomery, Jr., 
 J. E. Peralta, F. Ogliaro, M. Bearpark, J. J. Heyd, E. Brothers, 
 K. N. Kudin, V. N. Staroverov, T. Keith, R. Kobayashi, J. Normand, 
 K. Raghavachari, A. Rendell, J. C. Burant, S. S. Iyengar, J. Tomasi, 
 M. Cossi, N. Rega, J. M. Millam, M. Klene, J. E. Knox, J. B. Cross, 
 V. Bakken, C. Adamo, J. Jaramillo, R. Gomperts, R. E. Stratmann, 
 O. Yazyev, A. J. Austin, R. Cammi, C. Pomelli, J. W. Ochterski, 
 R. L. Martin, K. Morokuma, V. G. Zakrzewski, G. A. Voth, 
 P. Salvador, J. J. Dannenberg, S. Dapprich, A. D. Daniels, 
 O. Farkas, J. B. Foresman, J. V. Ortiz, J. Cioslowski, 
 and D. J. Fox, Gaussian, Inc., Wallingford CT, 2013.
 
 ******************************************
 Gaussian 09:  EM64L-G09RevD.01 24-Apr-2013
                 6-Sep-2016 
 ******************************************
 %chk=EtOCSMethyl_1Si_RHF6-31G_scan_0_180.chk
 ---------------------------------------------
 # opt=modredundant hf/6-31g geom=connectivity
 ---------------------------------------------
 1/18=120,19=15,38=1,57=2/1,3;
 2/9=110,12=2,17=6,18=5,40=1/2;
 3/5=1,6=6,11=9,16=1,25=1,30=1,71=1/1,2,3;
 4//1;
 5/5=2,38=5/2;
 6/7=2,8=2,9=2,10=2,28=1/1;
 7//1,2,3,16;
 1/18=20,19=15/3(2);
 2/9=110/2;
 99//99;
 2/9=110/2;
 3/5=1,6=6,11=9,16=1,25=1,30=1,71=1/1,2,3;
 4/5=5,16=3,69=1/1;
 5/5=2,38=5/2;
 7//1,2,3,16;
 1/18=20,19=15/3(-5);
 2/9=110/2;
 6/7=2,8=2,9=2,10=2,19=2,28=1/1;
 99/9=1/99;
 -------------------
 Title Card Required
 -------------------
 Symbolic Z-matrix:
 Charge =  0 Multiplicity = 1
 C                    -3.32057   1.00521   1.58542 
 H                    -2.61672   0.25326   1.29548 
 H                    -4.26409   0.54756   1.79812 
 Si                   -2.67389   1.92001   3.16926 
 H                    -1.38025   1.34907   3.57102 
 H                    -3.64345   1.75339   4.26155 
 C                    -2.45493   3.80818   2.78136 
 H                    -3.39656   4.22376   2.48893 
 H                    -2.09825   4.31274   3.65493 
 H                    -1.74919   3.92946   1.9863 
 C                    -3.48898   2.01995   0.43932 
 H                    -3.84565   1.51539  -0.43424 
 H                    -4.19283   2.7719    0.72926 
 H                    -2.54547   2.4776    0.22663 
 
 The following ModRedundant input section has been read:
 D      11       1       4       7 S  18 10.000                                
 

 GradGradGradGradGradGradGradGradGradGradGradGradGradGradGradGradGradGrad
 Berny optimization.
 Initialization pass.
                           ----------------------------
                           !    Initial Parameters    !
                           ! (Angstroms and Degrees)  !
 --------------------------                            --------------------------
 ! Name  Definition              Value          Derivative Info.                !
 --------------------------------------------------------------------------------
 ! R1    R(1,2)                  1.07           estimate D2E/DX2                !
 ! R2    R(1,3)                  1.07           estimate D2E/DX2                !
 ! R3    R(1,4)                  1.94           estimate D2E/DX2                !
 ! R4    R(1,11)                 1.54           estimate D2E/DX2                !
 ! R5    R(4,5)                  1.47           estimate D2E/DX2                !
 ! R6    R(4,6)                  1.47           estimate D2E/DX2                !
 ! R7    R(4,7)                  1.94           estimate D2E/DX2                !
 ! R8    R(7,8)                  1.07           estimate D2E/DX2                !
 ! R9    R(7,9)                  1.07           estimate D2E/DX2                !
 ! R10   R(7,10)                 1.07           estimate D2E/DX2                !
 ! R11   R(11,12)                1.07           estimate D2E/DX2                !
 ! R12   R(11,13)                1.07           estimate D2E/DX2                !
 ! R13   R(11,14)                1.07           estimate D2E/DX2                !
 ! A1    A(2,1,3)              109.4712         estimate D2E/DX2                !
 ! A2    A(2,1,4)              109.4712         estimate D2E/DX2                !
 ! A3    A(2,1,11)             109.4712         estimate D2E/DX2                !
 ! A4    A(3,1,4)              109.4712         estimate D2E/DX2                !
 ! A5    A(3,1,11)             109.4712         estimate D2E/DX2                !
 ! A6    A(4,1,11)             109.4712         estimate D2E/DX2                !
 ! A7    A(1,4,5)              109.4712         estimate D2E/DX2                !
 ! A8    A(1,4,6)              109.4712         estimate D2E/DX2                !
 ! A9    A(1,4,7)              109.4712         estimate D2E/DX2                !
 ! A10   A(5,4,6)              109.4712         estimate D2E/DX2                !
 ! A11   A(5,4,7)              109.4712         estimate D2E/DX2                !
 ! A12   A(6,4,7)              109.4712         estimate D2E/DX2                !
 ! A13   A(4,7,8)              109.4712         estimate D2E/DX2                !
 ! A14   A(4,7,9)              109.4712         estimate D2E/DX2                !
 ! A15   A(4,7,10)             109.4712         estimate D2E/DX2                !
 ! A16   A(8,7,9)              109.4712         estimate D2E/DX2                !
 ! A17   A(8,7,10)             109.4712         estimate D2E/DX2                !
 ! A18   A(9,7,10)             109.4712         estimate D2E/DX2                !
 ! A19   A(1,11,12)            109.4712         estimate D2E/DX2                !
 ! A20   A(1,11,13)            109.4712         estimate D2E/DX2                !
 ! A21   A(1,11,14)            109.4712         estimate D2E/DX2                !
 ! A22   A(12,11,13)           109.4712         estimate D2E/DX2                !
 ! A23   A(12,11,14)           109.4712         estimate D2E/DX2                !
 ! A24   A(13,11,14)           109.4712         estimate D2E/DX2                !
 ! D1    D(2,1,4,5)              0.0            estimate D2E/DX2                !
 ! D2    D(2,1,4,6)           -120.0            estimate D2E/DX2                !
 ! D3    D(2,1,4,7)            120.0            estimate D2E/DX2                !
 ! D4    D(3,1,4,5)            120.0            estimate D2E/DX2                !
 ! D5    D(3,1,4,6)              0.0            estimate D2E/DX2                !
 ! D6    D(3,1,4,7)           -120.0            estimate D2E/DX2                !
 ! D7    D(11,1,4,5)          -120.0            estimate D2E/DX2                !
 ! D8    D(11,1,4,6)           120.0            estimate D2E/DX2                !
 ! D9    D(11,1,4,7)             0.0            Scan                            !
 ! D10   D(2,1,11,12)           60.0            estimate D2E/DX2                !
 ! D11   D(2,1,11,13)          180.0            estimate D2E/DX2                !
 ! D12   D(2,1,11,14)          -60.0            estimate D2E/DX2                !
 ! D13   D(3,1,11,12)          -60.0            estimate D2E/DX2                !
 ! D14   D(3,1,11,13)           60.0            estimate D2E/DX2                !
 ! D15   D(3,1,11,14)         -180.0            estimate D2E/DX2                !
 ! D16   D(4,1,11,12)          180.0            estimate D2E/DX2                !
 ! D17   D(4,1,11,13)          -60.0            estimate D2E/DX2                !
 ! D18   D(4,1,11,14)           60.0            estimate D2E/DX2                !
 ! D19   D(1,4,7,8)             60.0            estimate D2E/DX2                !
 ! D20   D(1,4,7,9)            180.0            estimate D2E/DX2                !
 ! D21   D(1,4,7,10)           -60.0            estimate D2E/DX2                !
 ! D22   D(5,4,7,8)            180.0            estimate D2E/DX2                !
 ! D23   D(5,4,7,9)            -60.0            estimate D2E/DX2                !
 ! D24   D(5,4,7,10)            60.0            estimate D2E/DX2                !
 ! D25   D(6,4,7,8)            -60.0            estimate D2E/DX2                !
 ! D26   D(6,4,7,9)             60.0            estimate D2E/DX2                !
 ! D27   D(6,4,7,10)           180.0            estimate D2E/DX2                !
 --------------------------------------------------------------------------------
 Trust Radius=3.00D-01 FncErr=1.00D-07 GrdErr=1.00D-07
 Number of optimizations in scan=  19
 Number of steps in this run=     74 maximum allowed number of steps=    100.
 GradGradGradGradGradGradGradGradGradGradGradGradGradGradGradGradGradGrad

                          Input orientation:                          
 ---------------------------------------------------------------------
 Center     Atomic      Atomic             Coordinates (Angstroms)
 Number     Number       Type             X           Y           Z
 ---------------------------------------------------------------------
      1          6           0       -3.320571    1.005211    1.585422
      2          1           0       -2.616719    0.253261    1.295484
      3          1           0       -4.264085    0.547562    1.798116
      4         14           0       -2.673893    1.920011    3.169262
      5          1           0       -1.380247    1.349074    3.571020
      6          1           0       -3.643451    1.753394    4.261552
      7          6           0       -2.454926    3.808182    2.781364
      8          1           0       -3.396559    4.223762    2.488928
      9          1           0       -2.098253    4.312737    3.654925
     10          1           0       -1.749193    3.929461    1.986296
     11          6           0       -3.488980    2.019947    0.439320
     12          1           0       -3.845652    1.515392   -0.434241
     13          1           0       -4.192832    2.771897    0.729258
     14          1           0       -2.545466    2.477596    0.226626
 ---------------------------------------------------------------------
                    Distance matrix (angstroms):
                    1          2          3          4          5
     1  C    0.000000
     2  H    1.070000   0.000000
     3  H    1.070000   1.747303   0.000000
     4  Si   1.940000   2.508459   2.508459   0.000000
     5  H    2.797445   2.812069   3.478812   1.470000   0.000000
     6  H    2.797445   3.478812   2.812069   1.470000   2.400500
     7  C    3.168007   3.856355   3.856355   1.940000   2.797445
     8  H    3.343825   4.218689   3.839826   2.508459   3.674271
     9  H    4.088598   4.723887   4.723887   2.508459   3.050552
    10  H    3.343825   3.839826   4.218689   2.508459   3.050552
    11  C    1.540000   2.148263   2.148263   2.850778   3.834627
    12  H    2.148263   2.468846   2.468846   3.810770   4.706166
    13  H    2.148263   3.024610   2.468846   2.997749   4.243898
    14  H    2.148263   2.468846   3.024610   2.997749   3.717024
                    6          7          8          9         10
     6  H    0.000000
     7  C    2.797445   0.000000
     8  H    3.050552   1.070000   0.000000
     9  H    3.050552   1.070000   1.747303   0.000000
    10  H    3.674271   1.070000   1.747303   1.747303   0.000000
    11  C    3.834627   3.122855   3.011019   4.187018   3.011019
    12  H    4.706166   4.187018   4.010220   5.253553   4.010220
    13  H    3.717024   2.881899   2.416278   3.914202   2.981856
    14  H    4.243898   2.881899   2.981856   3.914202   2.416278
                   11         12         13         14
    11  C    0.000000
    12  H    1.070000   0.000000
    13  H    1.070000   1.747303   0.000000
    14  H    1.070000   1.747303   1.747303   0.000000
 Stoichiometry    C3H10Si
 Framework group  CS[SG(C3H2Si),X(H8)]
 Deg. of freedom    21
 Full point group                 CS      NOp   2
 Largest Abelian subgroup         CS      NOp   2
 Largest concise Abelian subgroup CS      NOp   2
                         Standard orientation:                         
 ---------------------------------------------------------------------
 Center     Atomic      Atomic             Coordinates (Angstroms)
 Number     Number       Type             X           Y           Z
 ---------------------------------------------------------------------
      1          6           0       -1.317386   -0.401990    0.000000
      2          1           0       -1.929857   -0.321289    0.873651
      3          1           0       -1.929857   -0.321289   -0.873651
      4         14           0        0.000000    1.022122    0.000000
      5          1           0       -0.175949    1.852388    1.200250
      6          1           0       -0.175949    1.852388   -1.200250
      7          6           0        1.781794    0.254783    0.000000
      8          1           0        1.909866   -0.349561   -0.873651
      9          1           0        2.508394    1.040246    0.000000
     10          1           0        1.909866   -0.349561    0.873651
     11          6           0       -0.600145   -1.764769    0.000000
     12          1           0       -1.326745   -2.550232    0.000000
     13          1           0        0.012326   -1.845470   -0.873651
     14          1           0        0.012326   -1.845470    0.873651
 ---------------------------------------------------------------------
 Rotational constants (GHZ):      7.6199887      4.0082554      2.8493090
 Standard basis: 6-31G (6D, 7F)
 There are    43 symmetry adapted cartesian basis functions of A'  symmetry.
 There are    17 symmetry adapted cartesian basis functions of A"  symmetry.
 There are    43 symmetry adapted basis functions of A'  symmetry.
 There are    17 symmetry adapted basis functions of A"  symmetry.
    60 basis functions,   152 primitive gaussians,    60 cartesian basis functions
    21 alpha electrons       21 beta electrons
       nuclear repulsion energy       173.2592304591 Hartrees.
 NAtoms=   14 NActive=   14 NUniq=   10 SFac= 1.96D+00 NAtFMM=   60 NAOKFM=F Big=F
 Integral buffers will be    131072 words long.
 Raffenetti 1 integral format.
 Two-electron integral symmetry is turned on.
 One-electron integrals computed using PRISM.
 NBasis=    60 RedAO= T EigKep=  1.22D-02  NBF=    43    17
 NBsUse=    60 1.00D-06 EigRej= -1.00D+00 NBFU=    43    17
 ExpMin= 7.78D-02 ExpMax= 1.61D+04 ExpMxC= 2.43D+03 IAcc=2 IRadAn=         4 AccDes= 0.00D+00
 Harris functional with IExCor=  205 and IRadAn=       4 diagonalized for initial guess.
 HarFok:  IExCor=  205 AccDes= 0.00D+00 IRadAn=         4 IDoV= 1 UseB2=F ITyADJ=14
 ICtDFT=  3500011 ScaDFX=  1.000000  1.000000  1.000000  1.000000
 FoFCou: FMM=F IPFlag=           0 FMFlag=      100000 FMFlg1=           0
         NFxFlg=           0 DoJE=T BraDBF=F KetDBF=T FulRan=T
         wScrn=  0.000000 ICntrl=     500 IOpCl=  0 I1Cent=   200000004 NGrid=           0
         NMat0=    1 NMatS0=      1 NMatT0=    0 NMatD0=    1 NMtDS0=    0 NMtDT0=    0
 Petite list used in FoFCou.
 Initial guess orbital symmetries:
       Occupied  (A') (A') (A') (A') (A') (A") (A') (A') (A') (A')
                 (A') (A') (A") (A') (A") (A') (A') (A") (A') (A')
                 (A")
       Virtual   (A') (A') (A") (A') (A") (A') (A') (A') (A') (A")
                 (A') (A') (A") (A') (A") (A') (A') (A') (A') (A")
                 (A") (A') (A') (A') (A") (A') (A") (A') (A') (A')
                 (A") (A') (A") (A') (A') (A") (A') (A') (A')
 The electronic state of the initial guess is 1-A'.
 Keep R1 ints in memory in symmetry-blocked form, NReq=2582053.
 Requested convergence on RMS density matrix=1.00D-08 within 128 cycles.
 Requested convergence on MAX density matrix=1.00D-06.
 Requested convergence on             energy=1.00D-06.
 No special actions if energy rises.
 SCF Done:  E(RHF) =  -408.251106703     A.U. after   11 cycles
            NFock= 11  Conv=0.19D-08     -V/T= 1.9987

 **********************************************************************

            Population analysis using the SCF density.

 **********************************************************************

 Orbital symmetries:
       Occupied  (A') (A') (A') (A') (A') (A") (A') (A') (A') (A')
                 (A') (A') (A") (A') (A") (A') (A") (A') (A") (A')
                 (A')
       Virtual   (A') (A') (A") (A') (A") (A') (A") (A') (A') (A')
                 (A') (A") (A') (A') (A") (A') (A') (A') (A") (A')
                 (A") (A') (A') (A') (A") (A') (A") (A') (A') (A')
                 (A") (A') (A') (A") (A") (A') (A') (A') (A')
 The electronic state is 1-A'.
 Alpha  occ. eigenvalues --  -68.76666 -11.21154 -11.20815 -11.20222  -6.13185
 Alpha  occ. eigenvalues --   -4.23743  -4.23683  -4.23590  -1.02883  -0.94566
 Alpha  occ. eigenvalues --   -0.84764  -0.68436  -0.61892  -0.59388  -0.56129
 Alpha  occ. eigenvalues --   -0.54375  -0.50696  -0.50534  -0.45263  -0.42814
 Alpha  occ. eigenvalues --   -0.40420
 Alpha virt. eigenvalues --    0.16793   0.18116   0.22954   0.23945   0.27350
 Alpha virt. eigenvalues --    0.28104   0.31018   0.31453   0.31698   0.32182
 Alpha virt. eigenvalues --    0.34926   0.38667   0.40356   0.44325   0.45041
 Alpha virt. eigenvalues --    0.51903   0.54177   0.71431   0.77035   0.78551
 Alpha virt. eigenvalues --    0.80274   0.89512   0.90954   0.99818   1.02826
 Alpha virt. eigenvalues --    1.10282   1.21513   1.22280   1.24127   1.26045
 Alpha virt. eigenvalues --    1.26388   1.29051   1.30019   1.30982   1.31981
 Alpha virt. eigenvalues --    1.32983   1.36617   1.43896   1.84524
          Condensed to atoms (all electrons):
               1          2          3          4          5          6
     1  C    5.627353   0.381731   0.381731   0.302702  -0.029834  -0.029834
     2  H    0.381731   0.526313  -0.022577  -0.021216  -0.000381   0.000531
     3  H    0.381731  -0.022577   0.526313  -0.021216   0.000531  -0.000381
     4  Si   0.302702  -0.021216  -0.021216  11.705831   0.375524   0.375524
     5  H   -0.029834  -0.000381   0.000531   0.375524   0.917077  -0.026690
     6  H   -0.029834   0.000531  -0.000381   0.375524  -0.026690   0.917077
     7  C   -0.032040   0.000658   0.000658   0.319613  -0.029070  -0.029070
     8  H    0.000206  -0.000002   0.000018  -0.020637   0.000860  -0.000599
     9  H    0.000936  -0.000010  -0.000010  -0.020741  -0.000010  -0.000010
    10  H    0.000206   0.000018  -0.000002  -0.020637  -0.000599   0.000860
    11  C    0.244422  -0.039496  -0.039496  -0.035256   0.000843   0.000843
    12  H   -0.045219  -0.004399  -0.004399   0.005126  -0.000039  -0.000039
    13  H   -0.048943   0.004496  -0.002434  -0.003505  -0.000002   0.000015
    14  H   -0.048943  -0.002434   0.004496  -0.003505   0.000015  -0.000002
               7          8          9         10         11         12
     1  C   -0.032040   0.000206   0.000936   0.000206   0.244422  -0.045219
     2  H    0.000658  -0.000002  -0.000010   0.000018  -0.039496  -0.004399
     3  H    0.000658   0.000018  -0.000010  -0.000002  -0.039496  -0.004399
     4  Si   0.319613  -0.020637  -0.020741  -0.020637  -0.035256   0.005126
     5  H   -0.029070   0.000860  -0.000010  -0.000599   0.000843  -0.000039
     6  H   -0.029070  -0.000599  -0.000010   0.000860   0.000843  -0.000039
     7  C    5.514082   0.370620   0.370074   0.370620  -0.006833   0.000189
     8  H    0.370620   0.520353  -0.022225  -0.023376  -0.000835  -0.000022
     9  H    0.370074  -0.022225   0.517423  -0.022225   0.000153  -0.000002
    10  H    0.370620  -0.023376  -0.022225   0.520353  -0.000835  -0.000022
    11  C   -0.006833  -0.000835   0.000153  -0.000835   5.122141   0.397151
    12  H    0.000189  -0.000022  -0.000002  -0.000022   0.397151   0.554192
    13  H   -0.000461   0.000174   0.000033   0.000047   0.395071  -0.030455
    14  H   -0.000461   0.000047   0.000033   0.000174   0.395071  -0.030455
              13         14
     1  C   -0.048943  -0.048943
     2  H    0.004496  -0.002434
     3  H   -0.002434   0.004496
     4  Si  -0.003505  -0.003505
     5  H   -0.000002   0.000015
     6  H    0.000015  -0.000002
     7  C   -0.000461  -0.000461
     8  H    0.000174   0.000047
     9  H    0.000033   0.000033
    10  H    0.000047   0.000174
    11  C    0.395071   0.395071
    12  H   -0.030455  -0.030455
    13  H    0.566351  -0.030738
    14  H   -0.030738   0.566351
 Mulliken charges:
               1
     1  C   -0.704474
     2  H    0.176768
     3  H    0.176768
     4  Si   1.062393
     5  H   -0.208224
     6  H   -0.208224
     7  C   -0.848579
     8  H    0.175417
     9  H    0.176581
    10  H    0.175417
    11  C   -0.432944
    12  H    0.158392
    13  H    0.150354
    14  H    0.150354
 Sum of Mulliken charges =   0.00000
 Mulliken charges with hydrogens summed into heavy atoms:
               1
     1  C   -0.350938
     4  Si   0.645946
     7  C   -0.321164
    11  C    0.026156
 Electronic spatial extent (au):  <R**2>=            505.4722
 Charge=              0.0000 electrons
 Dipole moment (field-independent basis, Debye):
    X=              0.0138    Y=             -0.5235    Z=              0.0000  Tot=              0.5236
 Quadrupole moment (field-independent basis, Debye-Ang):
   XX=            -36.6191   YY=            -38.1788   ZZ=            -36.7423
   XY=              0.5353   XZ=              0.0000   YZ=              0.0000
 Traceless Quadrupole moment (field-independent basis, Debye-Ang):
   XX=              0.5610   YY=             -0.9988   ZZ=              0.4378
   XY=              0.5353   XZ=              0.0000   YZ=              0.0000
 Octapole moment (field-independent basis, Debye-Ang**2):
  XXX=             -2.5479  YYY=             -6.2478  ZZZ=              0.0000  XYY=              1.2836
  XXY=              0.4187  XXZ=              0.0000  XZZ=              0.3582  YZZ=             -5.7642
  YYZ=              0.0000  XYZ=              0.0000
 Hexadecapole moment (field-independent basis, Debye-Ang**3):
 XXXX=           -325.6639 YYYY=           -351.1435 ZZZZ=            -83.7455 XXXY=            -39.6099
 XXXZ=              0.0000 YYYX=            -38.3134 YYYZ=              0.0000 ZZZX=              0.0000
 ZZZY=              0.0000 XXYY=           -104.3611 XXZZ=            -63.9867 YYZZ=            -77.8349
 XXYZ=              0.0000 YYXZ=              0.0000 ZZXY=            -15.2592
 N-N= 1.732592304591D+02 E-N=-1.313081137814D+03  KE= 4.087648155921D+02
 Symmetry A'   KE= 3.768872109586D+02
 Symmetry A"   KE= 3.187760463356D+01
 Calling FoFJK, ICntrl=      2127 FMM=F ISym2X=1 I1Cent= 0 IOpClX= 0 NMat=1 NMatS=1 NMatT=0.
 ***** Axes restored to original set *****
 -------------------------------------------------------------------
 Center     Atomic                   Forces (Hartrees/Bohr)
 Number     Number              X              Y              Z
 -------------------------------------------------------------------
      1        6           0.004792495    0.020502394    0.003702755
      2        1           0.004258780   -0.010108030   -0.001103935
      3        1          -0.007121388   -0.008074971    0.002368298
      4       14          -0.003224443    0.006741955   -0.014515587
      5        1           0.008975898   -0.003526811    0.005201697
      6        1          -0.005279731   -0.000980053    0.009551269
      7        6          -0.001381361   -0.020688368    0.007586054
      8        1          -0.006910983    0.006444674   -0.002286946
      9        1           0.003326744    0.006878978    0.006875558
     10        1           0.006181431    0.004105724   -0.006281607
     11        6           0.000271417   -0.015704854    0.010085055
     12        1          -0.003463659   -0.000594537   -0.011003955
     13        1          -0.005785129    0.008497478   -0.003389080
     14        1           0.005359929    0.006506421   -0.006789577
 -------------------------------------------------------------------
 Cartesian Forces:  Max     0.020688368 RMS     0.008025439

 GradGradGradGradGradGradGradGradGradGradGradGradGradGradGradGradGradGrad
 Berny optimization.
 FormGI is forming the generalized inverse of G from B-inverse, IUseBI=4.
 Internal  Forces:  Max     0.020283277 RMS     0.005873100
 Search for a local minimum.
 Step number   1 out of a maximum of   74 on scan point     1 out of    19
 All quantities printed in internal units (Hartrees-Bohrs-Radians)
 Mixed Optimization -- RFO/linear search
 Second derivative matrix not updated -- first step.
 ITU=  0
     Eigenvalues ---    0.00237   0.00239   0.01591   0.03841   0.04897
     Eigenvalues ---    0.04897   0.05720   0.05720   0.05721   0.05721
     Eigenvalues ---    0.07655   0.07656   0.10127   0.11701   0.16000
     Eigenvalues ---    0.16000   0.16000   0.16000   0.16000   0.16000
     Eigenvalues ---    0.17593   0.17593   0.18253   0.18253   0.21948
     Eigenvalues ---    0.21948   0.28519   0.37230   0.37230   0.37230
     Eigenvalues ---    0.37230   0.37230   0.37230   0.37230   0.37230
     Eigenvalues --- 1000.000001000.000001000.000001000.000001000.00000
     Eigenvalues --- 1000.000001000.000001000.000001000.000001000.00000
     Eigenvalues --- 1000.000001000.000001000.000001000.000001000.00000
     Eigenvalues --- 1000.000001000.000001000.000001000.000001000.00000
     Eigenvalues --- 1000.000001000.000001000.000001000.000001000.00000
     Eigenvalues --- 1000.000001000.000001000.000001000.00000
 RFO step:  Lambda=-1.03008171D-02 EMin= 2.36824133D-03
 Linear search not attempted -- first point.
 Iteration  1 RMS(Cart)=  0.12443761 RMS(Int)=  0.00393158
 Iteration  2 RMS(Cart)=  0.00505872 RMS(Int)=  0.00047245
 Iteration  3 RMS(Cart)=  0.00002155 RMS(Int)=  0.00047227
 Iteration  4 RMS(Cart)=  0.00000001 RMS(Int)=  0.00047227
 Iteration  1 RMS(Cart)=  0.00000000 RMS(Int)=  0.00000000
 ClnCor:  largest displacement from symmetrization is 1.70D-08 for atom     6.
 Variable       Old X    -DE/DX   Delta X   Delta X   Delta X     New X
                                 (Linear)    (Quad)   (Total)
    R1        2.02201   0.01020   0.00000   0.02667   0.02667   2.04868
    R2        2.02201   0.01020   0.00000   0.02667   0.02667   2.04868
    R3        3.66607   0.00508   0.00000   0.02730   0.02730   3.69337
    R4        2.91018   0.00780   0.00000   0.02640   0.02640   2.93658
    R5        2.77790   0.01069   0.00000   0.05544   0.05544   2.83334
    R6        2.77790   0.01069   0.00000   0.05544   0.05544   2.83334
    R7        3.66607  -0.00421   0.00000  -0.02262  -0.02262   3.64345
    R8        2.02201   0.00921   0.00000   0.02407   0.02407   2.04608
    R9        2.02201   0.00997   0.00000   0.02605   0.02605   2.04805
   R10        2.02201   0.00921   0.00000   0.02407   0.02407   2.04608
   R11        2.02201   0.01042   0.00000   0.02723   0.02723   2.04924
   R12        2.02201   0.00886   0.00000   0.02315   0.02315   2.04516
   R13        2.02201   0.00886   0.00000   0.02315   0.02315   2.04516
    A1        1.91063   0.00106   0.00000  -0.04638  -0.04738   1.86326
    A2        1.91063  -0.00603   0.00000  -0.02240  -0.02385   1.88678
    A3        1.91063  -0.00464   0.00000  -0.00647  -0.00688   1.90375
    A4        1.91063  -0.00603   0.00000  -0.02240  -0.02385   1.88678
    A5        1.91063  -0.00464   0.00000  -0.00647  -0.00688   1.90375
    A6        1.91063   0.02028   0.00000   0.10413   0.10316   2.01380
    A7        1.91063  -0.00239   0.00000   0.00245   0.00252   1.91315
    A8        1.91063  -0.00239   0.00000   0.00245   0.00252   1.91315
    A9        1.91063   0.01294   0.00000   0.06689   0.06648   1.97711
   A10        1.91063   0.00054   0.00000  -0.03165  -0.03222   1.87841
   A11        1.91063  -0.00435   0.00000  -0.02007  -0.02098   1.88965
   A12        1.91063  -0.00435   0.00000  -0.02007  -0.02098   1.88965
   A13        1.91063   0.00330   0.00000   0.02037   0.02016   1.93080
   A14        1.91063   0.00211   0.00000   0.01048   0.01040   1.92103
   A15        1.91063   0.00330   0.00000   0.02037   0.02016   1.93080
   A16        1.91063  -0.00298   0.00000  -0.01941  -0.01949   1.89114
   A17        1.91063  -0.00277   0.00000  -0.01238  -0.01269   1.89794
   A18        1.91063  -0.00298   0.00000  -0.01941  -0.01949   1.89114
   A19        1.91063   0.00422   0.00000   0.02160   0.02126   1.93189
   A20        1.91063   0.00663   0.00000   0.04054   0.03976   1.95039
   A21        1.91063   0.00663   0.00000   0.04054   0.03976   1.95039
   A22        1.91063  -0.00587   0.00000  -0.03764  -0.03795   1.87268
   A23        1.91063  -0.00587   0.00000  -0.03764  -0.03795   1.87268
   A24        1.91063  -0.00575   0.00000  -0.02740  -0.02852   1.88212
    D1        0.00000   0.00191   0.00000   0.02424   0.02362   0.02362
    D2       -2.09440   0.00417   0.00000   0.06000   0.05990  -2.03449
    D3        2.09440   0.00304   0.00000   0.04212   0.04176   2.13615
    D4        2.09440  -0.00417   0.00000  -0.06000  -0.05990   2.03449
    D5        0.00000  -0.00191   0.00000  -0.02424  -0.02362  -0.02362
    D6       -2.09440  -0.00304   0.00000  -0.04212  -0.04176  -2.13615
    D7       -2.09440  -0.00113   0.00000  -0.01788  -0.01814  -2.11254
    D8        2.09440   0.00113   0.00000   0.01788   0.01814   2.11254
    D9        0.00000   0.00000   0.00000   0.00000   0.00000   0.00000
   D10        1.04720  -0.00220   0.00000  -0.03237  -0.03267   1.01453
   D11        3.14159  -0.00274   0.00000  -0.04041  -0.04092   3.10067
   D12       -1.04720  -0.00165   0.00000  -0.02432  -0.02442  -1.07161
   D13       -1.04720   0.00220   0.00000   0.03237   0.03267  -1.01453
   D14        1.04720   0.00165   0.00000   0.02432   0.02442   1.07161
   D15        3.14159   0.00274   0.00000   0.04041   0.04092  -3.10067
   D16        3.14159   0.00000   0.00000   0.00000   0.00000  -3.14159
   D17       -1.04720  -0.00054   0.00000  -0.00805  -0.00825  -1.05545
   D18        1.04720   0.00054   0.00000   0.00805   0.00825   1.05545
   D19        1.04720   0.00033   0.00000   0.00489   0.00495   1.05215
   D20        3.14159   0.00000   0.00000   0.00000   0.00000   3.14159
   D21       -1.04720  -0.00033   0.00000  -0.00489  -0.00495  -1.05215
   D22        3.14159   0.00266   0.00000   0.03656   0.03629  -3.10530
   D23       -1.04720   0.00233   0.00000   0.03167   0.03134  -1.01585
   D24        1.04720   0.00200   0.00000   0.02678   0.02640   1.07359
   D25       -1.04720  -0.00200   0.00000  -0.02678  -0.02640  -1.07359
   D26        1.04720  -0.00233   0.00000  -0.03167  -0.03134   1.01585
   D27        3.14159  -0.00266   0.00000  -0.03656  -0.03629   3.10530
         Item               Value     Threshold  Converged?
 Maximum Force            0.020283     0.000450     NO 
 RMS     Force            0.005920     0.000300     NO 
 Maximum Displacement     0.410794     0.001800     NO 
 RMS     Displacement     0.126997     0.001200     NO 
 Predicted change in Energy=-5.504148D-03
 GradGradGradGradGradGradGradGradGradGradGradGradGradGradGradGradGradGrad

                          Input orientation:                          
 ---------------------------------------------------------------------
 Center     Atomic      Atomic             Coordinates (Angstroms)
 Number     Number       Type             X           Y           Z
 ---------------------------------------------------------------------
      1          6           0       -3.319538    1.038847    1.569114
      2          1           0       -2.612689    0.255627    1.319652
      3          1           0       -4.253360    0.548732    1.820242
      4         14           0       -2.668047    1.958993    3.165597
      5          1           0       -1.360947    1.361481    3.592774
      6          1           0       -3.642721    1.769118    4.288972
      7          6           0       -2.410231    3.851504    2.902485
      8          1           0       -3.342340    4.328823    2.627419
      9          1           0       -2.049664    4.308341    3.816749
     10          1           0       -1.682877    4.032361    2.121096
     11          6           0       -3.538556    1.941098    0.323001
     12          1           0       -3.899010    1.355441   -0.515465
     13          1           0       -4.270055    2.715881    0.512454
     14          1           0       -2.620793    2.421241    0.009243
 ---------------------------------------------------------------------
                    Distance matrix (angstroms):
                    1          2          3          4          5
     1  C    0.000000
     2  H    1.084113   0.000000
     3  H    1.084113   1.740202   0.000000
     4  Si   1.954448   2.512376   2.512376   0.000000
     5  H    2.834674   2.820790   3.488336   1.499338   0.000000
     6  H    2.834674   3.488336   2.820790   1.499338   2.420197
     7  C    3.242801   3.934041   3.934041   1.928029   2.788855
     8  H    3.456077   4.339766   3.971220   2.521983   3.696343
     9  H    4.165817   4.793431   4.793431   2.515121   3.034548
    10  H    3.456077   3.971220   4.339766   2.521983   3.066444
    11  C    1.553970   2.165955   2.165955   2.972955   3.971065
    12  H    2.186662   2.496372   2.496372   3.928074   4.829020
    13  H    2.198284   3.074294   2.531230   3.190373   4.448110
    14  H    2.198284   2.531230   3.074294   3.190373   3.943603
                    6          7          8          9         10
     6  H    0.000000
     7  C    2.788855   0.000000
     8  H    3.066444   1.082738   0.000000
     9  H    3.034548   1.083784   1.756684   0.000000
    10  H    3.696343   1.082738   1.760134   1.756684   0.000000
    11  C    3.971065   3.402427   3.324165   4.475145   3.324165
    12  H    4.829020   4.486555   4.362178   5.559476   4.362178
    13  H    3.943603   3.234321   2.816969   4.287707   3.318786
    14  H    4.448110   3.234321   3.318786   4.287707   2.816969
                   11         12         13         14
    11  C    0.000000
    12  H    1.084410   0.000000
    13  H    1.082253   1.745018   0.000000
    14  H    1.082253   1.745018   1.749314   0.000000
 Stoichiometry    C3H10Si
 Framework group  CS[SG(C3H2Si),X(H8)]
 Deg. of freedom    21
 Full point group                 CS      NOp   2
 Largest Abelian subgroup         CS      NOp   2
 Largest concise Abelian subgroup CS      NOp   2
                         Standard orientation:                         
 ---------------------------------------------------------------------
 Center     Atomic      Atomic             Coordinates (Angstroms)
 Number     Number       Type             X           Y           Z
 ---------------------------------------------------------------------
      1          6           0       -1.287694   -0.454357    0.000000
      2          1           0       -1.924927   -0.344086    0.870101
      3          1           0       -1.924927   -0.344086   -0.870101
      4         14           0        0.000000    1.015920    0.000000
      5          1           0       -0.216205    1.874366    1.210098
      6          1           0       -0.216205    1.874366   -1.210098
      7          6           0        1.834365    0.422287    0.000000
      8          1           0        2.042595   -0.173066   -0.880067
      9          1           0        2.501604    1.276324    0.000000
     10          1           0        2.042595   -0.173066    0.880067
     11          6           0       -0.670403   -1.880461    0.000000
     12          1           0       -1.449216   -2.635045    0.000000
     13          1           0       -0.056460   -2.051696   -0.874657
     14          1           0       -0.056460   -2.051696    0.874657
 ---------------------------------------------------------------------
 Rotational constants (GHZ):      7.9135700      3.5666373      2.6543433
 Standard basis: 6-31G (6D, 7F)
 There are    43 symmetry adapted cartesian basis functions of A'  symmetry.
 There are    17 symmetry adapted cartesian basis functions of A"  symmetry.
 There are    43 symmetry adapted basis functions of A'  symmetry.
 There are    17 symmetry adapted basis functions of A"  symmetry.
    60 basis functions,   152 primitive gaussians,    60 cartesian basis functions
    21 alpha electrons       21 beta electrons
       nuclear repulsion energy       169.8706081842 Hartrees.
 NAtoms=   14 NActive=   14 NUniq=   10 SFac= 1.96D+00 NAtFMM=   60 NAOKFM=F Big=F
 Integral buffers will be    131072 words long.
 Raffenetti 1 integral format.
 Two-electron integral symmetry is turned on.
 One-electron integrals computed using PRISM.
 NBasis=    60 RedAO= T EigKep=  1.35D-02  NBF=    43    17
 NBsUse=    60 1.00D-06 EigRej= -1.00D+00 NBFU=    43    17
 Initial guess from the checkpoint file:  "EtOCSMethyl_1Si_RHF6-31G_scan_0_180.chk"
 B after Tr=     0.000000    0.000000    0.000000
         Rot=    0.999914    0.000000    0.000000   -0.013100 Ang=  -1.50 deg.
 Initial guess orbital symmetries:
       Occupied  (A') (A') (A') (A') (A') (A") (A') (A') (A') (A')
                 (A') (A') (A") (A') (A") (A') (A") (A') (A") (A')
                 (A')
       Virtual   (A') (A') (A') (A') (A') (A') (A') (A') (A') (A')
                 (A') (A') (A') (A') (A') (A') (A') (A') (A') (A')
                 (A') (A') (A') (A') (A') (A') (A') (A") (A") (A")
                 (A") (A") (A") (A") (A") (A") (A") (A") (A")
 ExpMin= 7.78D-02 ExpMax= 1.61D+04 ExpMxC= 2.43D+03 IAcc=2 IRadAn=         4 AccDes= 0.00D+00
 Harris functional with IExCor=  205 and IRadAn=       4 diagonalized for initial guess.
 HarFok:  IExCor=  205 AccDes= 0.00D+00 IRadAn=         4 IDoV= 1 UseB2=F ITyADJ=14
 ICtDFT=  3500011 ScaDFX=  1.000000  1.000000  1.000000  1.000000
 FoFCou: FMM=F IPFlag=           0 FMFlag=      100000 FMFlg1=           0
         NFxFlg=           0 DoJE=T BraDBF=F KetDBF=T FulRan=T
         wScrn=  0.000000 ICntrl=     500 IOpCl=  0 I1Cent=   200000004 NGrid=           0
         NMat0=    1 NMatS0=      1 NMatT0=    0 NMatD0=    1 NMtDS0=    0 NMtDT0=    0
 Petite list used in FoFCou.
 Keep R1 ints in memory in symmetry-blocked form, NReq=2582053.
 Requested convergence on RMS density matrix=1.00D-08 within 128 cycles.
 Requested convergence on MAX density matrix=1.00D-06.
 Requested convergence on             energy=1.00D-06.
 No special actions if energy rises.
 SCF Done:  E(RHF) =  -408.255678355     A.U. after   10 cycles
            NFock= 10  Conv=0.62D-08     -V/T= 1.9994
 Calling FoFJK, ICntrl=      2127 FMM=F ISym2X=1 I1Cent= 0 IOpClX= 0 NMat=1 NMatS=1 NMatT=0.
 ***** Axes restored to original set *****
 -------------------------------------------------------------------
 Center     Atomic                   Forces (Hartrees/Bohr)
 Number     Number              X              Y              Z
 -------------------------------------------------------------------
      1        6           0.000648304    0.009099635   -0.003203208
      2        1           0.000420934   -0.000994288    0.000509261
      3        1          -0.000366936   -0.000853535    0.000749650
      4       14          -0.001416074    0.001462635   -0.005497552
      5        1          -0.000432011   -0.000643637    0.000250251
      6        1           0.000267326   -0.000768573    0.000036874
      7        6          -0.000810384   -0.005492705    0.000560067
      8        1          -0.000148210    0.001303491   -0.000523807
      9        1           0.000059337    0.000122878    0.000122529
     10        1           0.000245134    0.001233220   -0.000643822
     11        6           0.000886445   -0.005262443    0.005986565
     12        1          -0.000134881   -0.001053763    0.000174929
     13        1          -0.000601607    0.001100783    0.001041838
     14        1           0.001382624    0.000746302    0.000436424
 -------------------------------------------------------------------
 Cartesian Forces:  Max     0.009099635 RMS     0.002380423

 GradGradGradGradGradGradGradGradGradGradGradGradGradGradGradGradGradGrad
 Berny optimization.
 Using GEDIIS/GDIIS optimizer.
 FormGI is forming the generalized inverse of G from B-inverse, IUseBI=4.
 Internal  Forces:  Max     0.008937065 RMS     0.001566356
 Search for a local minimum.
 Step number   2 out of a maximum of   74 on scan point     1 out of    19
 All quantities printed in internal units (Hartrees-Bohrs-Radians)
 Mixed Optimization -- RFO/linear search
 Update second derivatives using D2CorX and points    1    2
 DE= -4.57D-03 DEPred=-5.50D-03 R= 8.31D-01
 TightC=F SS=  1.41D+00  RLast= 2.61D-01 DXNew= 5.0454D-01 7.8281D-01
 Trust test= 8.31D-01 RLast= 2.61D-01 DXMaxT set to 5.05D-01
 ITU=  1  0
 Use linear search instead of GDIIS.
     Eigenvalues ---    0.00237   0.00239   0.01376   0.03311   0.04733
     Eigenvalues ---    0.04804   0.05317   0.05439   0.05499   0.05583
     Eigenvalues ---    0.08391   0.08650   0.10839   0.12366   0.15264
     Eigenvalues ---    0.16000   0.16000   0.16000   0.16000   0.16199
     Eigenvalues ---    0.17186   0.17702   0.18253   0.18900   0.21961
     Eigenvalues ---    0.22665   0.31351   0.36394   0.37230   0.37230
     Eigenvalues ---    0.37230   0.37230   0.37230   0.37230   0.37407
     Eigenvalues --- 1000.000001000.000001000.000001000.000001000.00000
     Eigenvalues --- 1000.000001000.000001000.000001000.000001000.00000
     Eigenvalues --- 1000.000001000.000001000.000001000.000001000.00000
     Eigenvalues --- 1000.000001000.000001000.000001000.000001000.00000
     Eigenvalues --- 1000.000001000.000001000.000001000.000001000.00000
     Eigenvalues --- 1000.000001000.000001000.000001000.00000
 RFO step:  Lambda=-6.37387624D-04 EMin= 2.36824133D-03
 Quartic linear search produced a step of -0.04916.
 Iteration  1 RMS(Cart)=  0.01194996 RMS(Int)=  0.00003804
 Iteration  2 RMS(Cart)=  0.00002783 RMS(Int)=  0.00002348
 Iteration  3 RMS(Cart)=  0.00000000 RMS(Int)=  0.00002348
 Iteration  1 RMS(Cart)=  0.00000000 RMS(Int)=  0.00000000
 ClnCor:  largest displacement from symmetrization is 2.31D-08 for atom    10.
 Variable       Old X    -DE/DX   Delta X   Delta X   Delta X     New X
                                 (Linear)    (Quad)   (Total)
    R1        2.04868   0.00088  -0.00131   0.00509   0.00378   2.05246
    R2        2.04868   0.00088  -0.00131   0.00509   0.00378   2.05246
    R3        3.69337  -0.00671  -0.00134  -0.03326  -0.03460   3.65877
    R4        2.93658  -0.00894  -0.00130  -0.02691  -0.02820   2.90837
    R5        2.83334  -0.00005  -0.00273   0.00554   0.00281   2.83615
    R6        2.83334  -0.00005  -0.00273   0.00554   0.00281   2.83615
    R7        3.64345  -0.00280   0.00111  -0.01744  -0.01633   3.62712
    R8        2.04608   0.00084  -0.00118   0.00471   0.00353   2.04961
    R9        2.04805   0.00017  -0.00128   0.00324   0.00196   2.05001
   R10        2.04608   0.00084  -0.00118   0.00471   0.00353   2.04961
   R11        2.04924   0.00048  -0.00134   0.00414   0.00280   2.05204
   R12        2.04516   0.00138  -0.00114   0.00599   0.00485   2.05001
   R13        2.04516   0.00138  -0.00114   0.00599   0.00485   2.05001
    A1        1.86326  -0.00047   0.00233  -0.00757  -0.00523   1.85803
    A2        1.88678   0.00009   0.00117  -0.00472  -0.00348   1.88330
    A3        1.90375   0.00089   0.00034   0.00563   0.00599   1.90974
    A4        1.88678   0.00009   0.00117  -0.00472  -0.00348   1.88330
    A5        1.90375   0.00089   0.00034   0.00563   0.00599   1.90974
    A6        2.01380  -0.00145  -0.00507   0.00459  -0.00043   2.01337
    A7        1.91315  -0.00021  -0.00012  -0.00351  -0.00366   1.90949
    A8        1.91315  -0.00021  -0.00012  -0.00351  -0.00366   1.90949
    A9        1.97711  -0.00056  -0.00327   0.00597   0.00272   1.97983
   A10        1.87841  -0.00049   0.00158  -0.01012  -0.00854   1.86987
   A11        1.88965   0.00075   0.00103   0.00524   0.00632   1.89597
   A12        1.88965   0.00075   0.00103   0.00524   0.00632   1.89597
   A13        1.93080   0.00132  -0.00099   0.01004   0.00903   1.93983
   A14        1.92103  -0.00041  -0.00051  -0.00164  -0.00214   1.91889
   A15        1.93080   0.00132  -0.00099   0.01004   0.00903   1.93983
   A16        1.89114  -0.00050   0.00096  -0.00529  -0.00433   1.88681
   A17        1.89794  -0.00131   0.00062  -0.00854  -0.00795   1.88999
   A18        1.89114  -0.00050   0.00096  -0.00529  -0.00433   1.88681
   A19        1.93189  -0.00093  -0.00105  -0.00178  -0.00281   1.92908
   A20        1.95039  -0.00064  -0.00195  -0.00051  -0.00244   1.94796
   A21        1.95039  -0.00064  -0.00195  -0.00051  -0.00244   1.94796
   A22        1.87268   0.00098   0.00187   0.00331   0.00519   1.87787
   A23        1.87268   0.00098   0.00187   0.00331   0.00519   1.87787
   A24        1.88212   0.00039   0.00140  -0.00356  -0.00212   1.88000
    D1        0.02362  -0.00019  -0.00116  -0.00136  -0.00248   0.02113
    D2       -2.03449   0.00065  -0.00294   0.01509   0.01214  -2.02236
    D3        2.13615   0.00023  -0.00205   0.00687   0.00483   2.14098
    D4        2.03449  -0.00065   0.00294  -0.01509  -0.01214   2.02236
    D5       -0.02362   0.00019   0.00116   0.00136   0.00248  -0.02113
    D6       -2.13615  -0.00023   0.00205  -0.00687  -0.00483  -2.14098
    D7       -2.11254  -0.00042   0.00089  -0.00823  -0.00731  -2.11985
    D8        2.11254   0.00042  -0.00089   0.00823   0.00731   2.11985
    D9        0.00000   0.00000   0.00000   0.00000   0.00000   0.00000
   D10        1.01453   0.00021   0.00161  -0.00140   0.00023   1.01476
   D11        3.10067   0.00041   0.00201   0.00126   0.00329   3.10396
   D12       -1.07161   0.00002   0.00120  -0.00405  -0.00284  -1.07445
   D13       -1.01453  -0.00021  -0.00161   0.00140  -0.00023  -1.01476
   D14        1.07161  -0.00002  -0.00120   0.00405   0.00284   1.07445
   D15       -3.10067  -0.00041  -0.00201  -0.00126  -0.00329  -3.10396
   D16        3.14159   0.00000   0.00000   0.00000   0.00000   3.14159
   D17       -1.05545   0.00020   0.00041   0.00265   0.00306  -1.05239
   D18        1.05545  -0.00020  -0.00041  -0.00265  -0.00306   1.05239
   D19        1.05215   0.00005  -0.00024   0.00126   0.00102   1.05317
   D20        3.14159   0.00000   0.00000   0.00000   0.00000   3.14159
   D21       -1.05215  -0.00005   0.00024  -0.00126  -0.00102  -1.05317
   D22       -3.10530  -0.00006  -0.00178   0.00444   0.00269  -3.10261
   D23       -1.01585  -0.00011  -0.00154   0.00318   0.00166  -1.01419
   D24        1.07359  -0.00015  -0.00130   0.00193   0.00064   1.07423
   D25       -1.07359   0.00015   0.00130  -0.00193  -0.00064  -1.07423
   D26        1.01585   0.00011   0.00154  -0.00318  -0.00166   1.01419
   D27        3.10530   0.00006   0.00178  -0.00444  -0.00269   3.10261
         Item               Value     Threshold  Converged?
 Maximum Force            0.008937     0.000450     NO 
 RMS     Force            0.001579     0.000300     NO 
 Maximum Displacement     0.031439     0.001800     NO 
 RMS     Displacement     0.011960     0.001200     NO 
 Predicted change in Energy=-3.362783D-04
 GradGradGradGradGradGradGradGradGradGradGradGradGradGradGradGradGradGrad

                          Input orientation:                          
 ---------------------------------------------------------------------
 Center     Atomic      Atomic             Coordinates (Angstroms)
 Number     Number       Type             X           Y           Z
 ---------------------------------------------------------------------
      1          6           0       -3.317589    1.048209    1.570020
      2          1           0       -2.609752    0.261323    1.326257
      3          1           0       -4.250252    0.554397    1.826795
      4         14           0       -2.672200    1.960597    3.151049
      5          1           0       -1.369000    1.352618    3.580594
      6          1           0       -3.645879    1.759381    4.275298
      7          6           0       -2.414244    3.845003    2.893137
      8          1           0       -3.343145    4.333104    2.618787
      9          1           0       -2.053434    4.298069    3.810406
     10          1           0       -1.685573    4.036980    2.113041
     11          6           0       -3.534543    1.941690    0.335807
     12          1           0       -3.895409    1.352643   -0.502025
     13          1           0       -4.265852    2.719292    0.529091
     14          1           0       -2.613954    2.424182    0.025076
 ---------------------------------------------------------------------
                    Distance matrix (angstroms):
                    1          2          3          4          5
     1  C    0.000000
     2  H    1.086114   0.000000
     3  H    1.086114   1.740020   0.000000
     4  Si   1.936139   2.494253   2.494253   0.000000
     5  H    2.816394   2.795071   3.466205   1.500825   0.000000
     6  H    2.816394   3.466205   2.795071   1.500825   2.415005
     7  C    3.223156   3.916133   3.916133   1.919388   2.788748
     8  H    3.448348   4.334501   3.965945   2.522352   3.702110
     9  H    4.144757   4.772400   4.772400   2.506272   3.032646
    10  H    3.448348   3.965945   4.334501   2.522352   3.075667
    11  C    1.539045   2.158672   2.158672   2.944416   3.945279
    12  H    2.172539   2.487270   2.487270   3.900103   4.801096
    13  H    2.185236   3.069162   2.524094   3.160698   4.423937
    14  H    2.185236   2.524094   3.069162   3.160698   3.916615
                    6          7          8          9         10
     6  H    0.000000
     7  C    2.788748   0.000000
     8  H    3.075667   1.084604   0.000000
     9  H    3.032646   1.084820   1.756285   0.000000
    10  H    3.702110   1.084604   1.758128   1.756285   0.000000
    11  C    3.945279   3.378996   3.311721   4.451859   3.311721
    12  H    4.801096   4.464621   4.350588   5.537641   4.350588
    13  H    3.916615   3.206929   2.796893   4.260794   3.301975
    14  H    4.423937   3.206929   3.301975   4.260794   2.796893
                   11         12         13         14
    11  C    0.000000
    12  H    1.085892   0.000000
    13  H    1.084821   1.751616   0.000000
    14  H    1.084821   1.751616   1.752109   0.000000
 Stoichiometry    C3H10Si
 Framework group  CS[SG(C3H2Si),X(H8)]
 Deg. of freedom    21
 Full point group                 CS      NOp   2
 Largest Abelian subgroup         CS      NOp   2
 Largest concise Abelian subgroup CS      NOp   2
                         Standard orientation:                         
 ---------------------------------------------------------------------
 Center     Atomic      Atomic             Coordinates (Angstroms)
 Number     Number       Type             X           Y           Z
 ---------------------------------------------------------------------
      1          6           0       -1.278881   -0.448624    0.000000
      2          1           0       -1.918295   -0.330834    0.870010
      3          1           0       -1.918295   -0.330834   -0.870010
      4         14           0        0.000000    1.005025    0.000000
      5          1           0       -0.225268    1.867387    1.207502
      6          1           0       -0.225268    1.867387   -1.207502
      7          6           0        1.826433    0.414948    0.000000
      8          1           0        2.044832   -0.181638   -0.879064
      9          1           0        2.492059    1.271556    0.000000
     10          1           0        2.044832   -0.181638    0.879064
     11          6           0       -0.670068   -1.862133    0.000000
     12          1           0       -1.453423   -2.614140    0.000000
     13          1           0       -0.053041   -2.031375   -0.876055
     14          1           0       -0.053041   -2.031375    0.876055
 ---------------------------------------------------------------------
 Rotational constants (GHZ):      7.9848060      3.6194041      2.6912687
 Standard basis: 6-31G (6D, 7F)
 There are    43 symmetry adapted cartesian basis functions of A'  symmetry.
 There are    17 symmetry adapted cartesian basis functions of A"  symmetry.
 There are    43 symmetry adapted basis functions of A'  symmetry.
 There are    17 symmetry adapted basis functions of A"  symmetry.
    60 basis functions,   152 primitive gaussians,    60 cartesian basis functions
    21 alpha electrons       21 beta electrons
       nuclear repulsion energy       170.7128485929 Hartrees.
 NAtoms=   14 NActive=   14 NUniq=   10 SFac= 1.96D+00 NAtFMM=   60 NAOKFM=F Big=F
 Integral buffers will be    131072 words long.
 Raffenetti 1 integral format.
 Two-electron integral symmetry is turned on.
 One-electron integrals computed using PRISM.
 NBasis=    60 RedAO= T EigKep=  1.31D-02  NBF=    43    17
 NBsUse=    60 1.00D-06 EigRej= -1.00D+00 NBFU=    43    17
 Initial guess from the checkpoint file:  "EtOCSMethyl_1Si_RHF6-31G_scan_0_180.chk"
 B after Tr=     0.000000    0.000000    0.000000
         Rot=    1.000000    0.000000    0.000000    0.000944 Ang=   0.11 deg.
 Initial guess orbital symmetries:
       Occupied  (A') (A') (A') (A') (A') (A") (A') (A') (A') (A')
                 (A') (A') (A") (A') (A") (A') (A') (A") (A") (A')
                 (A')
       Virtual   (A') (A') (A') (A') (A') (A') (A') (A') (A') (A')
                 (A') (A') (A') (A') (A') (A') (A') (A') (A') (A')
                 (A') (A') (A') (A') (A') (A') (A') (A") (A") (A")
                 (A") (A") (A") (A") (A") (A") (A") (A") (A")
 ExpMin= 7.78D-02 ExpMax= 1.61D+04 ExpMxC= 2.43D+03 IAcc=2 IRadAn=         4 AccDes= 0.00D+00
 Harris functional with IExCor=  205 and IRadAn=       4 diagonalized for initial guess.
 HarFok:  IExCor=  205 AccDes= 0.00D+00 IRadAn=         4 IDoV= 1 UseB2=F ITyADJ=14
 ICtDFT=  3500011 ScaDFX=  1.000000  1.000000  1.000000  1.000000
 FoFCou: FMM=F IPFlag=           0 FMFlag=      100000 FMFlg1=           0
         NFxFlg=           0 DoJE=T BraDBF=F KetDBF=T FulRan=T
         wScrn=  0.000000 ICntrl=     500 IOpCl=  0 I1Cent=   200000004 NGrid=           0
         NMat0=    1 NMatS0=      1 NMatT0=    0 NMatD0=    1 NMtDS0=    0 NMtDT0=    0
 Petite list used in FoFCou.
 Keep R1 ints in memory in symmetry-blocked form, NReq=2582053.
 Requested convergence on RMS density matrix=1.00D-08 within 128 cycles.
 Requested convergence on MAX density matrix=1.00D-06.
 Requested convergence on             energy=1.00D-06.
 No special actions if energy rises.
 SCF Done:  E(RHF) =  -408.256029134     A.U. after    9 cycles
            NFock=  9  Conv=0.49D-08     -V/T= 1.9993
 Calling FoFJK, ICntrl=      2127 FMM=F ISym2X=1 I1Cent= 0 IOpClX= 0 NMat=1 NMatS=1 NMatT=0.
 ***** Axes restored to original set *****
 -------------------------------------------------------------------
 Center     Atomic                   Forces (Hartrees/Bohr)
 Number     Number              X              Y              Z
 -------------------------------------------------------------------
      1        6           0.000006984    0.000962896   -0.000540905
      2        1          -0.000513746   -0.000122916    0.000260440
      3        1           0.000501802   -0.000304343   -0.000049416
      4       14           0.000010035    0.000053380    0.000001635
      5        1          -0.000449086    0.000174154    0.000135017
      6        1           0.000477829    0.000008562   -0.000147796
      7        6          -0.000119229   -0.000675296    0.000004628
      8        1           0.000458421    0.000099092    0.000041403
      9        1          -0.000109794   -0.000016919   -0.000349940
     10        1          -0.000302614    0.000235051    0.000273605
     11        6          -0.000043085   -0.000997257    0.000442702
     12        1           0.000204142    0.000755856    0.000226503
     13        1           0.000304671   -0.000151425   -0.000260457
     14        1          -0.000426331   -0.000020832   -0.000037419
 -------------------------------------------------------------------
 Cartesian Forces:  Max     0.000997257 RMS     0.000368046

 GradGradGradGradGradGradGradGradGradGradGradGradGradGradGradGradGradGrad
 Berny optimization.
 Using GEDIIS/GDIIS optimizer.
 FormGI is forming the generalized inverse of G from B-inverse, IUseBI=4.
 Internal  Forces:  Max     0.000652619 RMS     0.000243623
 Search for a local minimum.
 Step number   3 out of a maximum of   74 on scan point     1 out of    19
 All quantities printed in internal units (Hartrees-Bohrs-Radians)
 Mixed Optimization -- En-DIIS/RFO-DIIS
 Update second derivatives using D2CorX and points    1    2    3
 DE= -3.51D-04 DEPred=-3.36D-04 R= 1.04D+00
 TightC=F SS=  1.41D+00  RLast= 5.99D-02 DXNew= 8.4853D-01 1.7960D-01
 Trust test= 1.04D+00 RLast= 5.99D-02 DXMaxT set to 5.05D-01
 ITU=  1  1  0
 Use linear search instead of GDIIS.
     Eigenvalues ---    0.00237   0.00239   0.01371   0.03289   0.04597
     Eigenvalues ---    0.04738   0.05344   0.05412   0.05456   0.05558
     Eigenvalues ---    0.08468   0.08602   0.10855   0.12382   0.14382
     Eigenvalues ---    0.16000   0.16000   0.16000   0.16032   0.16205
     Eigenvalues ---    0.17461   0.18253   0.18487   0.19053   0.21959
     Eigenvalues ---    0.22640   0.30695   0.37097   0.37230   0.37230
     Eigenvalues ---    0.37230   0.37230   0.37230   0.37293   0.37597
     Eigenvalues --- 1000.000001000.000001000.000001000.000001000.00000
     Eigenvalues --- 1000.000001000.000001000.000001000.000001000.00000
     Eigenvalues --- 1000.000001000.000001000.000001000.000001000.00000
     Eigenvalues --- 1000.000001000.000001000.000001000.000001000.00000
     Eigenvalues --- 1000.000001000.000001000.000001000.000001000.00000
     Eigenvalues --- 1000.000001000.000001000.000001000.00000
 RFO step:  Lambda=-2.40646749D-05 EMin= 2.36824133D-03
 Quartic linear search produced a step of  0.04301.
 Iteration  1 RMS(Cart)=  0.00184963 RMS(Int)=  0.00000402
 Iteration  2 RMS(Cart)=  0.00000457 RMS(Int)=  0.00000159
 Iteration  3 RMS(Cart)=  0.00000000 RMS(Int)=  0.00000159
 Iteration  1 RMS(Cart)=  0.00000000 RMS(Int)=  0.00000000
 ClnCor:  largest displacement from symmetrization is 1.72D-08 for atom    14.
 Variable       Old X    -DE/DX   Delta X   Delta X   Delta X     New X
                                 (Linear)    (Quad)   (Total)
    R1        2.05246  -0.00030   0.00016  -0.00082  -0.00066   2.05180
    R2        2.05246  -0.00030   0.00016  -0.00082  -0.00066   2.05180
    R3        3.65877  -0.00010  -0.00149  -0.00016  -0.00165   3.65713
    R4        2.90837  -0.00054  -0.00121  -0.00162  -0.00284   2.90554
    R5        2.83615  -0.00042   0.00012  -0.00231  -0.00219   2.83396
    R6        2.83615  -0.00042   0.00012  -0.00231  -0.00219   2.83396
    R7        3.62712  -0.00036  -0.00070  -0.00200  -0.00270   3.62442
    R8        2.04961  -0.00036   0.00015  -0.00098  -0.00083   2.04878
    R9        2.05001  -0.00034   0.00008  -0.00090  -0.00082   2.04919
   R10        2.04961  -0.00036   0.00015  -0.00098  -0.00083   2.04878
   R11        2.05204  -0.00065   0.00012  -0.00179  -0.00167   2.05037
   R12        2.05001  -0.00036   0.00021  -0.00100  -0.00079   2.04922
   R13        2.05001  -0.00036   0.00021  -0.00100  -0.00079   2.04922
    A1        1.85803  -0.00029  -0.00022  -0.00530  -0.00553   1.85250
    A2        1.88330   0.00004  -0.00015   0.00028   0.00013   1.88343
    A3        1.90974   0.00018   0.00026   0.00184   0.00209   1.91183
    A4        1.88330   0.00004  -0.00015   0.00028   0.00013   1.88343
    A5        1.90974   0.00018   0.00026   0.00184   0.00209   1.91183
    A6        2.01337  -0.00018  -0.00002   0.00049   0.00047   2.01384
    A7        1.90949   0.00017  -0.00016   0.00177   0.00161   1.91111
    A8        1.90949   0.00017  -0.00016   0.00177   0.00161   1.91111
    A9        1.97983  -0.00018   0.00012   0.00003   0.00015   1.97998
   A10        1.86987  -0.00022  -0.00037  -0.00365  -0.00402   1.86585
   A11        1.89597   0.00003   0.00027  -0.00010   0.00018   1.89615
   A12        1.89597   0.00003   0.00027  -0.00010   0.00018   1.89615
   A13        1.93983   0.00033   0.00039   0.00215   0.00253   1.94236
   A14        1.91889   0.00007  -0.00009   0.00041   0.00031   1.91921
   A15        1.93983   0.00033   0.00039   0.00215   0.00253   1.94236
   A16        1.88681  -0.00021  -0.00019  -0.00145  -0.00164   1.88518
   A17        1.88999  -0.00034  -0.00034  -0.00202  -0.00237   1.88761
   A18        1.88681  -0.00021  -0.00019  -0.00145  -0.00164   1.88518
   A19        1.92908   0.00062  -0.00012   0.00467   0.00454   1.93363
   A20        1.94796   0.00014  -0.00010   0.00080   0.00069   1.94865
   A21        1.94796   0.00014  -0.00010   0.00080   0.00069   1.94865
   A22        1.87787  -0.00036   0.00022  -0.00200  -0.00178   1.87609
   A23        1.87787  -0.00036   0.00022  -0.00200  -0.00178   1.87609
   A24        1.88000  -0.00025  -0.00009  -0.00263  -0.00272   1.87728
    D1        0.02113   0.00011  -0.00011   0.00177   0.00166   0.02279
    D2       -2.02236   0.00018   0.00052   0.00413   0.00465  -2.01771
    D3        2.14098   0.00015   0.00021   0.00295   0.00315   2.14413
    D4        2.02236  -0.00018  -0.00052  -0.00413  -0.00465   2.01771
    D5       -0.02113  -0.00011   0.00011  -0.00177  -0.00166  -0.02279
    D6       -2.14098  -0.00015  -0.00021  -0.00295  -0.00315  -2.14413
    D7       -2.11985  -0.00004  -0.00031  -0.00118  -0.00150  -2.12134
    D8        2.11985   0.00004   0.00031   0.00118   0.00150   2.12134
    D9        0.00000   0.00000   0.00000   0.00000   0.00000   0.00000
   D10        1.01476  -0.00007   0.00001  -0.00215  -0.00214   1.01262
   D11        3.10396  -0.00001   0.00014  -0.00102  -0.00088   3.10309
   D12       -1.07445  -0.00013  -0.00012  -0.00328  -0.00340  -1.07785
   D13       -1.01476   0.00007  -0.00001   0.00215   0.00214  -1.01262
   D14        1.07445   0.00013   0.00012   0.00328   0.00340   1.07785
   D15       -3.10396   0.00001  -0.00014   0.00102   0.00088  -3.10309
   D16        3.14159   0.00000   0.00000   0.00000   0.00000   3.14159
   D17       -1.05239   0.00006   0.00013   0.00113   0.00126  -1.05112
   D18        1.05239  -0.00006  -0.00013  -0.00113  -0.00126   1.05112
   D19        1.05317   0.00001   0.00004   0.00017   0.00022   1.05339
   D20        3.14159   0.00000   0.00000   0.00000   0.00000   3.14159
   D21       -1.05317  -0.00001  -0.00004  -0.00017  -0.00022  -1.05339
   D22       -3.10261   0.00012   0.00012   0.00239   0.00251  -3.10010
   D23       -1.01419   0.00011   0.00007   0.00222   0.00229  -1.01190
   D24        1.07423   0.00010   0.00003   0.00204   0.00207   1.07630
   D25       -1.07423  -0.00010  -0.00003  -0.00204  -0.00207  -1.07630
   D26        1.01419  -0.00011  -0.00007  -0.00222  -0.00229   1.01190
   D27        3.10261  -0.00012  -0.00012  -0.00239  -0.00251   3.10010
         Item               Value     Threshold  Converged?
 Maximum Force            0.000653     0.000450     NO 
 RMS     Force            0.000246     0.000300     YES
 Maximum Displacement     0.005971     0.001800     NO 
 RMS     Displacement     0.001850     0.001200     NO 
 Predicted change in Energy=-1.273563D-05
 GradGradGradGradGradGradGradGradGradGradGradGradGradGradGradGradGradGrad

                          Input orientation:                          
 ---------------------------------------------------------------------
 Center     Atomic      Atomic             Coordinates (Angstroms)
 Number     Number       Type             X           Y           Z
 ---------------------------------------------------------------------
      1          6           0       -3.317599    1.048721    1.569689
      2          1           0       -2.611733    0.259975    1.327780
      3          1           0       -4.248313    0.552349    1.827121
      4         14           0       -2.672499    1.960718    3.149997
      5          1           0       -1.371234    1.353396    3.582285
      6          1           0       -3.642978    1.759241    4.275422
      7          6           0       -2.414654    3.843745    2.892530
      8          1           0       -3.341891    4.334170    2.618422
      9          1           0       -2.053984    4.296799    3.809347
     10          1           0       -1.686408    4.038419    2.113313
     11          6           0       -3.534565    1.940740    0.336292
     12          1           0       -3.895250    1.355803   -0.503353
     13          1           0       -4.264669    2.719057    0.528904
     14          1           0       -2.615050    2.424354    0.025584
 ---------------------------------------------------------------------
                    Distance matrix (angstroms):
                    1          2          3          4          5
     1  C    0.000000
     2  H    1.085765   0.000000
     3  H    1.085765   1.735862   0.000000
     4  Si   1.935268   2.493330   2.493330   0.000000
     5  H    2.816328   2.795926   3.464082   1.499668   0.000000
     6  H    2.816328   3.464082   2.795926   1.499668   2.409558
     7  C    3.221393   3.915442   3.915442   1.917958   2.786813
     8  H    3.448856   4.335661   3.968618   2.522684   3.701018
     9  H    4.142801   4.771290   4.771290   2.504911   3.030071
    10  H    3.448856   3.968618   4.335661   2.522684   3.076778
    11  C    1.537544   2.158619   2.158619   2.942872   3.944800
    12  H    2.173817   2.490240   2.490240   3.899744   4.802405
    13  H    2.184079   3.068792   2.525918   3.159148   4.422684
    14  H    2.184079   2.525918   3.068792   3.159148   3.917161
                    6          7          8          9         10
     6  H    0.000000
     7  C    2.786813   0.000000
     8  H    3.076778   1.084168   0.000000
     9  H    3.030071   1.084387   1.754538   0.000000
    10  H    3.701018   1.084168   1.755912   1.754538   0.000000
    11  C    3.944800   3.377866   3.312665   4.450309   3.312665
    12  H    4.802405   4.462515   4.349984   5.535260   4.349984
    13  H    3.917161   3.205340   2.797534   4.258839   3.301288
    14  H    4.422684   3.205340   3.301288   4.258839   2.797534
                   11         12         13         14
    11  C    0.000000
    12  H    1.085010   0.000000
    13  H    1.084403   1.749425   0.000000
    14  H    1.084403   1.749425   1.749693   0.000000
 Stoichiometry    C3H10Si
 Framework group  CS[SG(C3H2Si),X(H8)]
 Deg. of freedom    21
 Full point group                 CS      NOp   2
 Largest Abelian subgroup         CS      NOp   2
 Largest concise Abelian subgroup CS      NOp   2
                         Standard orientation:                         
 ---------------------------------------------------------------------
 Center     Atomic      Atomic             Coordinates (Angstroms)
 Number     Number       Type             X           Y           Z
 ---------------------------------------------------------------------
      1          6           0       -1.278134   -0.448858    0.000000
      2          1           0       -1.919486   -0.329488    0.867931
      3          1           0       -1.919486   -0.329488   -0.867931
      4         14           0        0.000000    1.004290    0.000000
      5          1           0       -0.224729    1.868587    1.204779
      6          1           0       -0.224729    1.868587   -1.204779
      7          6           0        1.825231    0.415143    0.000000
      8          1           0        2.046351   -0.181279   -0.877956
      9          1           0        2.490631    1.271378    0.000000
     10          1           0        2.046351   -0.181279    0.877956
     11          6           0       -0.670412   -1.861201    0.000000
     12          1           0       -1.449976   -2.615872    0.000000
     13          1           0       -0.052519   -2.030854   -0.874846
     14          1           0       -0.052519   -2.030854    0.874846
 ---------------------------------------------------------------------
 Rotational constants (GHZ):      7.9949675      3.6222578      2.6931765
 Standard basis: 6-31G (6D, 7F)
 There are    43 symmetry adapted cartesian basis functions of A'  symmetry.
 There are    17 symmetry adapted cartesian basis functions of A"  symmetry.
 There are    43 symmetry adapted basis functions of A'  symmetry.
 There are    17 symmetry adapted basis functions of A"  symmetry.
    60 basis functions,   152 primitive gaussians,    60 cartesian basis functions
    21 alpha electrons       21 beta electrons
       nuclear repulsion energy       170.7955850027 Hartrees.
 NAtoms=   14 NActive=   14 NUniq=   10 SFac= 1.96D+00 NAtFMM=   60 NAOKFM=F Big=F
 Integral buffers will be    131072 words long.
 Raffenetti 1 integral format.
 Two-electron integral symmetry is turned on.
 One-electron integrals computed using PRISM.
 NBasis=    60 RedAO= T EigKep=  1.31D-02  NBF=    43    17
 NBsUse=    60 1.00D-06 EigRej= -1.00D+00 NBFU=    43    17
 Initial guess from the checkpoint file:  "EtOCSMethyl_1Si_RHF6-31G_scan_0_180.chk"
 B after Tr=     0.000000    0.000000    0.000000
         Rot=    1.000000    0.000000    0.000000   -0.000042 Ang=   0.00 deg.
 Initial guess orbital symmetries:
       Occupied  (A') (A') (A') (A') (A') (A") (A') (A') (A') (A')
                 (A') (A') (A") (A') (A") (A') (A') (A") (A") (A')
                 (A')
       Virtual   (A') (A') (A') (A') (A') (A') (A') (A') (A') (A')
                 (A') (A') (A') (A') (A') (A') (A') (A') (A') (A')
                 (A') (A') (A') (A') (A') (A') (A') (A") (A") (A")
                 (A") (A") (A") (A") (A") (A") (A") (A") (A")
 Keep R1 ints in memory in symmetry-blocked form, NReq=2582053.
 Requested convergence on RMS density matrix=1.00D-08 within 128 cycles.
 Requested convergence on MAX density matrix=1.00D-06.
 Requested convergence on             energy=1.00D-06.
 No special actions if energy rises.
 SCF Done:  E(RHF) =  -408.256042046     A.U. after    8 cycles
            NFock=  8  Conv=0.21D-08     -V/T= 1.9993
 Calling FoFJK, ICntrl=      2127 FMM=F ISym2X=1 I1Cent= 0 IOpClX= 0 NMat=1 NMatS=1 NMatT=0.
 ***** Axes restored to original set *****
 -------------------------------------------------------------------
 Center     Atomic                   Forces (Hartrees/Bohr)
 Number     Number              X              Y              Z
 -------------------------------------------------------------------
      1        6          -0.000060997    0.000027121   -0.000215797
      2        1           0.000035318   -0.000036331   -0.000006758
      3        1          -0.000042673   -0.000022397    0.000017038
      4       14           0.000021306    0.000020268    0.000057962
      5        1          -0.000003689    0.000009562    0.000041345
      6        1           0.000028333    0.000003841    0.000031575
      7        6          -0.000025117   -0.000038621   -0.000059706
      8        1          -0.000000514    0.000020405    0.000000522
      9        1           0.000012873    0.000012826    0.000034680
     10        1           0.000007163    0.000019034   -0.000001820
     11        6           0.000032462   -0.000048106    0.000134562
     12        1           0.000003247    0.000005909    0.000007182
     13        1          -0.000031805    0.000018238   -0.000011865
     14        1           0.000024093    0.000008252   -0.000028920
 -------------------------------------------------------------------
 Cartesian Forces:  Max     0.000215797 RMS     0.000047983

 GradGradGradGradGradGradGradGradGradGradGradGradGradGradGradGradGradGrad
 Berny optimization.
 Using GEDIIS/GDIIS optimizer.
 FormGI is forming the generalized inverse of G from B-inverse, IUseBI=4.
 Internal  Forces:  Max     0.000121129 RMS     0.000029038
 Search for a local minimum.
 Step number   4 out of a maximum of   74 on scan point     1 out of    19
 All quantities printed in internal units (Hartrees-Bohrs-Radians)
 Mixed Optimization -- En-DIIS/RFO-DIIS
 Swapping is turned off.
 Update second derivatives using D2CorX and points    1    2    3    4
 DE= -1.29D-05 DEPred=-1.27D-05 R= 1.01D+00
 TightC=F SS=  1.41D+00  RLast= 1.72D-02 DXNew= 8.4853D-01 5.1672D-02
 Trust test= 1.01D+00 RLast= 1.72D-02 DXMaxT set to 5.05D-01
 ITU=  1  1  1  0
     Eigenvalues ---    0.00237   0.00239   0.01366   0.03277   0.04517
     Eigenvalues ---    0.04805   0.05356   0.05391   0.05421   0.05545
     Eigenvalues ---    0.08367   0.08642   0.10865   0.12392   0.14390
     Eigenvalues ---    0.15998   0.16000   0.16000   0.16051   0.16320
     Eigenvalues ---    0.17461   0.18221   0.18253   0.19075   0.21925
     Eigenvalues ---    0.22604   0.30385   0.37132   0.37218   0.37230
     Eigenvalues ---    0.37230   0.37230   0.37230   0.37311   0.38071
     Eigenvalues --- 1000.000001000.000001000.000001000.000001000.00000
     Eigenvalues --- 1000.000001000.000001000.000001000.000001000.00000
     Eigenvalues --- 1000.000001000.000001000.000001000.000001000.00000
     Eigenvalues --- 1000.000001000.000001000.000001000.000001000.00000
     Eigenvalues --- 1000.000001000.000001000.000001000.000001000.00000
     Eigenvalues --- 1000.000001000.000001000.000001000.00000
 En-DIIS/RFO-DIIS IScMMF=        0 using points:     4    3
 RFO step:  Lambda=-1.23969969D-07.
 DidBck=F Rises=F RFO-DIIS coefs:    1.01868   -0.01868
 Iteration  1 RMS(Cart)=  0.00032425 RMS(Int)=  0.00000006
 Iteration  2 RMS(Cart)=  0.00000006 RMS(Int)=  0.00000003
 Iteration  1 RMS(Cart)=  0.00000000 RMS(Int)=  0.00000000
 ClnCor:  largest displacement from symmetrization is 1.38D-08 for atom    14.
 Variable       Old X    -DE/DX   Delta X   Delta X   Delta X     New X
                                 (Linear)    (Quad)   (Total)
    R1        2.05180   0.00005  -0.00001   0.00015   0.00014   2.05193
    R2        2.05180   0.00005  -0.00001   0.00015   0.00014   2.05193
    R3        3.65713   0.00012  -0.00003   0.00067   0.00064   3.65777
    R4        2.90554  -0.00009  -0.00005  -0.00035  -0.00040   2.90514
    R5        2.83396   0.00000  -0.00004   0.00005   0.00001   2.83397
    R6        2.83396   0.00000  -0.00004   0.00005   0.00001   2.83397
    R7        3.62442   0.00002  -0.00005   0.00010   0.00005   3.62446
    R8        2.04878   0.00001  -0.00002   0.00004   0.00002   2.04880
    R9        2.04919   0.00004  -0.00002   0.00011   0.00010   2.04929
   R10        2.04878   0.00001  -0.00002   0.00004   0.00002   2.04880
   R11        2.05037  -0.00001  -0.00003  -0.00001  -0.00004   2.05033
   R12        2.04922   0.00003  -0.00001   0.00010   0.00009   2.04931
   R13        2.04922   0.00003  -0.00001   0.00010   0.00009   2.04931
    A1        1.85250  -0.00001  -0.00010   0.00011   0.00001   1.85251
    A2        1.88343   0.00002   0.00000   0.00003   0.00003   1.88346
    A3        1.91183   0.00002   0.00004   0.00009   0.00013   1.91196
    A4        1.88343   0.00002   0.00000   0.00003   0.00003   1.88346
    A5        1.91183   0.00002   0.00004   0.00009   0.00013   1.91196
    A6        2.01384  -0.00006   0.00001  -0.00032  -0.00031   2.01353
    A7        1.91111   0.00005   0.00003   0.00039   0.00042   1.91153
    A8        1.91111   0.00005   0.00003   0.00039   0.00042   1.91153
    A9        1.97998  -0.00007   0.00000  -0.00023  -0.00023   1.97975
   A10        1.86585  -0.00004  -0.00008  -0.00043  -0.00051   1.86534
   A11        1.89615   0.00001   0.00000  -0.00007  -0.00006   1.89608
   A12        1.89615   0.00001   0.00000  -0.00007  -0.00006   1.89608
   A13        1.94236   0.00002   0.00005   0.00016   0.00020   1.94257
   A14        1.91921  -0.00002   0.00001  -0.00015  -0.00014   1.91907
   A15        1.94236   0.00002   0.00005   0.00016   0.00020   1.94257
   A16        1.88518  -0.00001  -0.00003  -0.00008  -0.00011   1.88507
   A17        1.88761  -0.00002  -0.00004  -0.00002  -0.00007   1.88754
   A18        1.88518  -0.00001  -0.00003  -0.00008  -0.00011   1.88507
   A19        1.93363  -0.00001   0.00008  -0.00018  -0.00009   1.93353
   A20        1.94865   0.00002   0.00001   0.00015   0.00016   1.94881
   A21        1.94865   0.00002   0.00001   0.00015   0.00016   1.94881
   A22        1.87609  -0.00001  -0.00003  -0.00012  -0.00015   1.87594
   A23        1.87609  -0.00001  -0.00003  -0.00012  -0.00015   1.87594
   A24        1.87728  -0.00001  -0.00005   0.00011   0.00006   1.87734
    D1        0.02279   0.00000   0.00003  -0.00011  -0.00008   0.02271
    D2       -2.01771  -0.00001   0.00009  -0.00004   0.00005  -2.01766
    D3        2.14413   0.00000   0.00006  -0.00008  -0.00002   2.14412
    D4        2.01771   0.00001  -0.00009   0.00004  -0.00005   2.01766
[...]
           A12        108.56459 108.65229 108.89982 109.21475 109.52116
           A13        110.53549 110.66194 110.81104 110.96609 111.05947
           A14        110.85839 110.81914 110.81784 110.82283 110.82350
           A15        111.06616 110.96572 110.81960 110.68286 110.57848
           A16        108.10541 108.09627 108.07945 108.05576 108.04814
           A17        108.10527 108.10306 108.10058 108.09632 108.10718
           A18        108.05719 108.08262 108.10029 108.10376 108.11120
           A19        111.08117 111.06442 111.06141 111.06098 111.08318
           A20        111.63026 111.56299 111.46621 111.36630 111.28381
           A21        111.25096 111.32546 111.41779 111.50128 111.55962
           A22        107.47464 107.55369 107.63780 107.71035 107.74823
           A23        107.72679 107.69830 107.63881 107.57353 107.49787
           A24        107.47886 107.43841 107.42172 107.43245 107.47233
           D1         100.64486 111.09127 121.68341 132.24342 142.63707
           D2         -16.94633  -6.48208   4.14884  14.75405  25.26238
           D3        -137.60757-127.42971-117.19537-106.98162 -96.83655
           D4        -144.66667-134.19935-123.59169-113.00125-102.60307
           D5          97.74214 108.22730 118.87374 129.50938 140.02224
           D6         -22.91910 -12.72033  -2.47048   7.77371  17.92331
           D7         -21.74773 -11.47909  -1.12122   9.22510  19.47377
           D8        -139.33892-129.05244-118.65578-108.26426 -97.90092
           D9          99.99984 109.99992 120.00000 130.00007 140.00015
           D10         59.14445  58.70726  58.09825  57.50251  57.01829
           D11        179.08251 178.68897 178.11949 177.54828 177.07161
           D12        -60.85837 -61.29817 -61.89176 -62.46055 -62.90309
           D13        -57.17995 -57.56678 -58.16752 -58.77923 -59.32562
           D14         62.75811  62.41493  61.85373  61.26653  60.72771
           D15       -177.18277-177.57221-178.15752-178.74229-179.24700
           D16       -179.12441-179.37275-179.77177 179.81566 179.41130
           D17        -59.18635 -59.39103 -59.75052 -60.13858 -60.53537
           D18         60.87277  60.62182  60.23822  59.85260  59.48993
           D19         61.24266  60.86164  60.39871  59.94106  59.57903
           D20       -178.89892-179.23417-179.62113-180.00300 179.68765
           D21        -58.75120 -59.14711 -59.60915 -60.07328 -60.44128
           D22       -177.18834-177.71295-178.41786-179.14134-179.80131
           D23        -57.32992 -57.80877 -58.43770 -59.08539 -59.69268
           D24         62.81779  62.27830  61.57428  60.84433  60.17839
           D25        -60.13549 -60.85949 -61.65013 -62.34925 -62.88124
           D26         59.72293  59.04470  58.33003  57.70670  57.22738
           D27        179.87065 179.13177 178.34200 177.63641 177.09845
                          16        17        18        19
     Eigenvalues --  -408.25793-408.25845-408.25883-408.25897
           R1           1.08642   1.08670   1.08697   1.08714
           R2           1.08719   1.08726   1.08725   1.08715
           R3           1.92709   1.92482   1.92313   1.92257
           R4           1.53716   1.53699   1.53694   1.53688
           R5           1.49958   1.49961   1.49965   1.49958
           R6           1.49941   1.49945   1.49949   1.49956
           R7           1.91668   1.91635   1.91626   1.91619
           R8           1.08482   1.08479   1.08471   1.08466
           R9           1.08425   1.08427   1.08423   1.08424
           R10          1.08464   1.08460   1.08464   1.08466
           R11          1.08493   1.08491   1.08489   1.08487
           R12          1.08419   1.08432   1.08452   1.08484
           R13          1.08527   1.08527   1.08511   1.08484
           A1         106.20684 106.22284 106.22613 106.23040
           A2         108.58913 108.56006 108.46934 108.33310
           A3         110.09600 110.12017 110.05840 109.93620
           A4         108.06475 108.13354 108.20395 108.34616
           A5         109.53061 109.63671 109.77729 109.93353
           A6         114.04054 113.86700 113.80945 113.76859
           A7         108.96935 108.92776 109.00068 109.18141
           A8         109.98567 109.76744 109.43532 109.17724
           A9         111.85775 111.82062 111.88022 111.88077
           A10        107.23293 107.27959 107.30946 107.32492
           A11        108.92474 109.09113 109.32455 109.58024
           A12        109.74906 109.83883 109.77764 109.58556
           A13        111.10576 111.06483 110.97906 110.84193
           A14        110.83304 110.82830 110.83231 110.83129
           A15        110.54837 110.59944 110.69333 110.83687
           A16        108.03356 108.03342 108.03524 108.04785
           A17        108.10731 108.11508 108.11914 108.11985
           A18        108.09856 108.08536 108.06689 108.04799
           A19        111.10614 111.12911 111.14178 111.14494
           A20        111.23586 111.24076 111.29278 111.37018
           A21        111.57079 111.53361 111.45608 111.37071
           A22        107.75052 107.71082 107.63678 107.55630
           A23        107.45438 107.44381 107.48953 107.55621
           A24        107.52820 107.58815 107.62987 107.64868
           D1         152.66854 162.40142 171.83514-178.89535
           D2          35.38757  45.21324  54.75781  64.05219
           D3         -86.84074 -76.95114 -67.13781 -57.42351
           D4         -92.53249 -82.75995 -73.33255 -64.05471
           D5         150.18654 160.05187 169.59012 178.89282
           D6          27.95823  37.88749  47.69450  57.41713
           D7          29.50949  39.35275  48.97311  58.52805
           D8         -87.77148 -77.83543 -68.10423 -58.52441
           D9         150.00021 160.00019 170.00015 179.99989
           D10         56.85424  57.05391  57.58152  58.29574
           D11        176.89374 177.06191 177.53924 178.20564
           D12        -63.03506 -62.81254 -62.29936 -61.61440
           D13        -59.57708 -59.47302 -58.99603 -58.30720
           D14         60.46242  60.53498  60.96170  61.60269
           D15       -179.46637-179.33947-178.87690-178.21734
           D16        179.19083 179.24702 179.56926-180.01321
           D17        -60.76966 -60.74498 -60.47302 -60.10331
           D18         59.30154  59.38057  59.68838  60.07665
           D19         59.38981  59.46130  59.65582  60.02436
           D20        179.51713 179.55812 179.70081-180.00598
           D21        -60.64110 -60.58633 -60.40265 -60.03948
           D22        179.90652 180.01357-179.50494-178.73404
           D23        -59.96616 -59.88961 -59.45995 -58.76438
           D24         59.87561  59.96594  60.43659  61.20212
           D25        -62.97376 -62.66217 -62.04312 -61.21562
           D26         57.15355  57.43465  58.00187  58.75404
           D27        176.99532 177.29020 177.89841 178.72055
                          Input orientation:                          
 ---------------------------------------------------------------------
 Center     Atomic      Atomic             Coordinates (Angstroms)
 Number     Number       Type             X           Y           Z
 ---------------------------------------------------------------------
      1          6           0       -3.607364    1.937021    1.257401
      2          1           0       -4.455579    1.514952    1.790573
      3          1           0       -3.980211    2.819257    0.743068
      4         14           0       -2.298957    2.497668    2.549697
      5          1           0       -1.130683    3.108362    1.834915
      6          1           0       -1.791345    1.296305    3.289794
      7          6           0       -3.021677    3.761552    3.795513
      8          1           0       -3.855500    3.332517    4.340625
      9          1           0       -2.270450    4.065810    4.515697
     10          1           0       -3.374993    4.649747    3.282907
     11          6           0       -3.072821    0.921379    0.235284
     12          1           0       -3.844179    0.634654   -0.471643
     13          1           0       -2.244254    1.330909   -0.332721
     14          1           0       -2.722813    0.017355    0.722222
 ---------------------------------------------------------------------
                    Distance matrix (angstroms):
                    1          2          3          4          5
     1  C    0.000000
     2  H    1.087144   0.000000
     3  H    1.087150   1.739096   0.000000
     4  Si   1.922572   2.488578   2.488763   0.000000
     5  H    2.799914   3.687256   3.065212   1.499575   0.000000
     6  H    2.799833   3.064900   3.687320   1.499562   2.415926
     7  C    3.180245   3.335127   3.335285   1.916190   2.801154
     8  H    3.393413   3.188480   3.636125   2.515397   3.708566
     9  H    4.115286   4.325271   4.325495   2.514963   3.066328
    10  H    3.393458   3.636161   3.188693   2.515331   3.083744
    11  C    1.536876   2.164087   2.164057   2.905179   3.333710
    12  H    2.177575   2.503269   2.503302   3.871308   4.336186
    13  H    2.180351   3.071190   2.527063   3.110089   3.016294
    14  H    2.180358   2.527182   3.071179   3.109867   3.650656
                    6          7          8          9         10
     6  H    0.000000
     7  C    2.801234   0.000000
     8  H    3.084013   1.084656   0.000000
     9  H    3.066355   1.084242   1.755207   0.000000
    10  H    3.708579   1.084660   1.756346   1.755212   0.000000
    11  C    3.333584   4.554606   4.824935   5.371516   4.824940
    12  H    4.335933   5.353749   5.516930   6.254839   5.517042
    13  H    3.650882   4.853322   5.333171   5.566644   5.036469
    14  H    3.015920   4.853190   5.036479   5.566424   5.333057
                   11         12         13         14
    11  C    0.000000
    12  H    1.084873   0.000000
    13  H    1.084836   1.750380   0.000000
    14  H    1.084838   1.750381   1.751385   0.000000
 Stoichiometry    C3H10Si
 Framework group  C1[X(C3H10Si)]
 Deg. of freedom    36
 Full point group                 C1      NOp   1
 Largest Abelian subgroup         C1      NOp   1
 Largest concise Abelian subgroup C1      NOp   1
                         Standard orientation:                         
 ---------------------------------------------------------------------
 Center     Atomic      Atomic             Coordinates (Angstroms)
 Number     Number       Type             X           Y           Z
 ---------------------------------------------------------------------
      1          6           0       -0.961148   -0.672106    0.000003
      2          1           0       -0.883757   -1.319930   -0.869605
      3          1           0       -0.883904   -1.320118    0.869491
      4         14           0        0.545107    0.522666   -0.000002
      5          1           0        0.471603    1.408170    1.207974
      6          1           0        0.471456    1.408171   -1.207952
      7          6           0        2.209611   -0.426656   -0.000003
      8          1           0        2.293917   -1.057791   -0.878091
      9          1           0        3.046586    0.262586   -0.000112
     10          1           0        2.293949   -1.057558    0.878254
     11          6           0       -2.320518    0.044903    0.000007
     12          1           0       -3.138718   -0.667486   -0.000224
     13          1           0       -2.435241    0.674715    0.875817
     14          1           0       -2.435065    0.675078   -0.875568
 ---------------------------------------------------------------------
 Rotational constants (GHZ):     14.8596280      2.6046218      2.3736620

 **********************************************************************

            Population analysis using the SCF density.

 **********************************************************************

 Orbital symmetries:
       Occupied  (A) (A) (A) (A) (A) (A) (A) (A) (A) (A) (A) (A)
                 (A) (A) (A) (A) (A) (A) (A) (A) (A)
       Virtual   (A) (A) (A) (A) (A) (A) (A) (A) (A) (A) (A) (A)
                 (A) (A) (A) (A) (A) (A) (A) (A) (A) (A) (A) (A)
                 (A) (A) (A) (A) (A) (A) (A) (A) (A) (A) (A) (A)
                 (A) (A) (A)
 The electronic state is 1-A.
 Alpha  occ. eigenvalues --  -68.77125 -11.21705 -11.21486 -11.20770  -6.13535
 Alpha  occ. eigenvalues --   -4.24077  -4.24035  -4.23969  -1.02342  -0.94699
 Alpha  occ. eigenvalues --   -0.84633  -0.68492  -0.60847  -0.56978  -0.55887
 Alpha  occ. eigenvalues --   -0.55608  -0.51038  -0.49393  -0.44763  -0.43711
 Alpha  occ. eigenvalues --   -0.40874
 Alpha virt. eigenvalues --    0.17364   0.18760   0.23430   0.24676   0.27572
 Alpha virt. eigenvalues --    0.28225   0.30297   0.31439   0.32346   0.32862
 Alpha virt. eigenvalues --    0.33599   0.34044   0.38708   0.42388   0.45702
 Alpha virt. eigenvalues --    0.51958   0.55175   0.72052   0.75585   0.82456
 Alpha virt. eigenvalues --    0.84980   0.90337   0.92155   0.94567   1.01933
 Alpha virt. eigenvalues --    1.05019   1.20332   1.21806   1.22817   1.23062
 Alpha virt. eigenvalues --    1.24803   1.26739   1.27220   1.28237   1.30597
 Alpha virt. eigenvalues --    1.32519   1.35413   1.41636   1.71583
          Condensed to atoms (all electrons):
               1          2          3          4          5          6
     1  C    5.617750   0.377010   0.377022   0.306715  -0.029883  -0.029885
     2  H    0.377010   0.537168  -0.027564  -0.020015   0.000797  -0.000969
     3  H    0.377022  -0.027564   0.537139  -0.020002  -0.000968   0.000797
     4  Si   0.306715  -0.020015  -0.020002  11.683589   0.373746   0.373745
     5  H   -0.029883   0.000797  -0.000968   0.373746   0.924162  -0.028105
     6  H   -0.029885  -0.000969   0.000797   0.373745  -0.028105   0.924161
     7  C   -0.030376   0.000289   0.000289   0.304954  -0.028804  -0.028799
     8  H   -0.000232   0.000380  -0.000072  -0.017664   0.000828  -0.000824
     9  H    0.000872  -0.000001  -0.000001  -0.017609  -0.000298  -0.000298
    10  H   -0.000232  -0.000072   0.000380  -0.017666  -0.000825   0.000828
    11  C    0.244304  -0.037730  -0.037732  -0.029544   0.000665   0.000664
    12  H   -0.041903  -0.004182  -0.004180   0.003418  -0.000028  -0.000028
    13  H   -0.045612   0.004039  -0.002427  -0.001483   0.001178  -0.000069
    14  H   -0.045613  -0.002425   0.004039  -0.001482  -0.000069   0.001179
               7          8          9         10         11         12
     1  C   -0.030376  -0.000232   0.000872  -0.000232   0.244304  -0.041903
     2  H    0.000289   0.000380  -0.000001  -0.000072  -0.037730  -0.004182
     3  H    0.000289  -0.000072  -0.000001   0.000380  -0.037732  -0.004180
     4  Si   0.304954  -0.017664  -0.017609  -0.017666  -0.029544   0.003418
     5  H   -0.028804   0.000828  -0.000298  -0.000825   0.000665  -0.000028
     6  H   -0.028799  -0.000824  -0.000298   0.000828   0.000664  -0.000028
     7  C    5.529515   0.369864   0.371183   0.369863   0.000815  -0.000025
     8  H    0.369864   0.519927  -0.023691  -0.024027   0.000008   0.000000
     9  H    0.371183  -0.023691   0.514909  -0.023691  -0.000013   0.000000
    10  H    0.369863  -0.024027  -0.023691   0.519929   0.000008   0.000000
    11  C    0.000815   0.000008  -0.000013   0.000008   5.119941   0.394044
    12  H   -0.000025   0.000000   0.000000   0.000000   0.394044   0.558759
    13  H   -0.000020   0.000001   0.000000  -0.000001   0.391916  -0.031701
    14  H   -0.000020  -0.000001   0.000000   0.000001   0.391914  -0.031700
              13         14
     1  C   -0.045612  -0.045613
     2  H    0.004039  -0.002425
     3  H   -0.002427   0.004039
     4  Si  -0.001483  -0.001482
     5  H    0.001178  -0.000069
     6  H   -0.000069   0.001179
     7  C   -0.000020  -0.000020
     8  H    0.000001  -0.000001
     9  H    0.000000   0.000000
    10  H   -0.000001   0.000001
    11  C    0.391916   0.391914
    12  H   -0.031701  -0.031700
    13  H    0.561011  -0.031680
    14  H   -0.031680   0.561012
 Mulliken charges:
               1
     1  C   -0.699937
     2  H    0.173276
     3  H    0.173282
     4  Si   1.079299
     5  H   -0.212398
     6  H   -0.212397
     7  C   -0.858729
     8  H    0.175503
     9  H    0.178639
    10  H    0.175505
    11  C   -0.439261
    12  H    0.157526
    13  H    0.154848
    14  H    0.154844
 Sum of Mulliken charges =   0.00000
 Mulliken charges with hydrogens summed into heavy atoms:
               1
     1  C   -0.353379
     4  Si   0.654504
     7  C   -0.329082
    11  C    0.027957
 Electronic spatial extent (au):  <R**2>=            586.5634
 Charge=              0.0000 electrons
 Dipole moment (field-independent basis, Debye):
    X=              0.0115    Y=             -0.7370    Z=             -0.0001  Tot=              0.7371
 Quadrupole moment (field-independent basis, Debye-Ang):
   XX=            -36.3905   YY=            -37.6913   ZZ=            -37.1830
   XY=             -0.0330   XZ=             -0.0002   YZ=             -0.0002
 Traceless Quadrupole moment (field-independent basis, Debye-Ang):
   XX=              0.6978   YY=             -0.6031   ZZ=             -0.0947
   XY=             -0.0330   XZ=             -0.0002   YZ=             -0.0002
 Octapole moment (field-independent basis, Debye-Ang**2):
  XXX=             -1.8036  YYY=             -5.5791  ZZZ=              0.0002  XYY=             -0.8379
  XXY=              1.1472  XXZ=             -0.0001  XZZ=             -0.9555  YZZ=             -5.1649
  YYZ=             -0.0003  XYZ=             -0.0001
 Hexadecapole moment (field-independent basis, Debye-Ang**3):
 XXXX=           -631.3182 YYYY=           -149.4700 ZZZZ=            -86.0057 XXXY=              9.9285
 XXXZ=             -0.0012 YYYX=             -2.0591 YYYZ=             -0.0009 ZZZX=             -0.0008
 ZZZY=             -0.0004 XXYY=           -126.5728 XXZZ=           -117.4939 YYZZ=            -40.3057
 XXYZ=             -0.0001 YYXZ=             -0.0009 ZZXY=             -4.2753
 N-N= 1.687945903295D+02 E-N=-1.303927409329D+03  KE= 4.085396256598D+02
 1\1\GINC-CORN15\Scan\RHF\6-31G\C3H10Si1\JOEBURG\06-Sep-2016\0\\# opt=m
 odredundant hf/6-31g geom=connectivity\\Title Card Required\\0,1\C,-3.
 6073644115,1.937020541,1.2574010762\H,-4.4555792071,1.5149518568,1.790
 5730103\H,-3.980210868,2.8192570117,0.7430680275\Si,-2.298957266,2.497
 6683075,2.5496970611\H,-1.1306825189,3.1083621078,1.8349148983\H,-1.79
 13450421,1.2963054431,3.2897940098\C,-3.0216774485,3.7615521643,3.7955
 133355\H,-3.8554999148,3.3325166528,4.3406250155\H,-2.2704498742,4.065
 8096527,4.5156972426\H,-3.3749925423,4.6497468922,3.2829069145\C,-3.07
 282145,0.9213785098,0.2352840645\H,-3.8441789972,0.6346536381,-0.47164
 282\H,-2.2442542556,1.3309092822,-0.3327211239\H,-2.7228131906,0.01735
 50459,0.7222219845\\Version=EM64L-G09RevD.01\State=1-A\HF=-408.256042,
 -408.256231,-408.2567298,-408.2573809,-408.2580103,-408.2584736,-408.2
 586824,-408.2586071,-408.2582759,-408.2577846,-408.2572828,-408.256922
 5,-408.2568104,-408.2569805,-408.2573883,-408.2579256,-408.2584524,-40
 8.2588337,-408.2589723\RMSD=2.109e-09,6.842e-09,7.625e-09,5.931e-09,4.
 290e-09,7.303e-09,7.180e-09,3.704e-09,2.285e-09,3.899e-09,8.721e-09,4.
 738e-09,6.562e-09,8.080e-09,9.009e-09,1.792e-09,3.102e-09,2.063e-09,7.
 046e-09\PG=C01 [X(C3H10Si1)]\\@


 WHEN YOU REACH FOR THE STARS, YOU MAY NOT QUITE GET ONE,
 BUT YOU WON'T COME UP WITH A HANDFUL OF MUD, EITHER.

                                         -- LEO BURNETT (AD AGENCY HEAD)
 Job cpu time:       0 days  0 hours  3 minutes 48.8 seconds.
 File lengths (MBytes):  RWF=      6 Int=      0 D2E=      0 Chk=      3 Scr=      1
 Normal termination of Gaussian 09 at Tue Sep  6 18:35:14 2016.
