 Entering Gaussian System, Link 0=g09
 Input=/afs/.ir.stanford.edu/users/j/o/joeburg/Gaussian Input/EtOCSVinyl_RHF6-31G_scan_0_180.com
 Output=/afs/.ir.stanford.edu/users/j/o/joeburg/Gaussian Input/EtOCSVinyl_RHF6-31G_scan_0_180.log
 Initial command:
 /farmshare/software/non-free/gaussian/D.01/g09D.01/l1.exe "/tmp/Gau-3185.inp" -scrdir="/tmp/"
 Entering Link 1 = /farmshare/software/non-free/gaussian/D.01/g09D.01/l1.exe PID=      3187.
  
 Copyright (c) 1988,1990,1992,1993,1995,1998,2003,2009,2013,
            Gaussian, Inc.  All Rights Reserved.
  
 This is part of the Gaussian(R) 09 program.  It is based on
 the Gaussian(R) 03 system (copyright 2003, Gaussian, Inc.),
 the Gaussian(R) 98 system (copyright 1998, Gaussian, Inc.),
 the Gaussian(R) 94 system (copyright 1995, Gaussian, Inc.),
 the Gaussian 92(TM) system (copyright 1992, Gaussian, Inc.),
 the Gaussian 90(TM) system (copyright 1990, Gaussian, Inc.),
 the Gaussian 88(TM) system (copyright 1988, Gaussian, Inc.),
 the Gaussian 86(TM) system (copyright 1986, Carnegie Mellon
 University), and the Gaussian 82(TM) system (copyright 1983,
 Carnegie Mellon University). Gaussian is a federally registered
 trademark of Gaussian, Inc.
  
 This software contains proprietary and confidential information,
 including trade secrets, belonging to Gaussian, Inc.
  
 This software is provided under written license and may be
 used, copied, transmitted, or stored only in accord with that
 written license.
  
 The following legend is applicable only to US Government
 contracts under FAR:
  
                    RESTRICTED RIGHTS LEGEND
  
 Use, reproduction and disclosure by the US Government is
 subject to restrictions as set forth in subparagraphs (a)
 and (c) of the Commercial Computer Software - Restricted
 Rights clause in FAR 52.227-19.
  
 Gaussian, Inc.
 340 Quinnipiac St., Bldg. 40, Wallingford CT 06492
  
  
 ---------------------------------------------------------------
 Warning -- This program may not be used in any manner that
 competes with the business of Gaussian, Inc. or will provide
 assistance to any competitor of Gaussian, Inc.  The licensee
 of this program is prohibited from giving any competitor of
 Gaussian, Inc. access to this program.  By using this program,
 the user acknowledges that Gaussian, Inc. is engaged in the
 business of creating and licensing software in the field of
 computational chemistry and represents and warrants to the
 licensee that it is not a competitor of Gaussian, Inc. and that
 it will not use this program in any manner prohibited above.
 ---------------------------------------------------------------
  

 Cite this work as:
 Gaussian 09, Revision D.01,
 M. J. Frisch, G. W. Trucks, H. B. Schlegel, G. E. Scuseria, 
 M. A. Robb, J. R. Cheeseman, G. Scalmani, V. Barone, B. Mennucci, 
 G. A. Petersson, H. Nakatsuji, M. Caricato, X. Li, H. P. Hratchian, 
 A. F. Izmaylov, J. Bloino, G. Zheng, J. L. Sonnenberg, M. Hada, 
 M. Ehara, K. Toyota, R. Fukuda, J. Hasegawa, M. Ishida, T. Nakajima, 
 Y. Honda, O. Kitao, H. Nakai, T. Vreven, J. A. Montgomery, Jr., 
 J. E. Peralta, F. Ogliaro, M. Bearpark, J. J. Heyd, E. Brothers, 
 K. N. Kudin, V. N. Staroverov, T. Keith, R. Kobayashi, J. Normand, 
 K. Raghavachari, A. Rendell, J. C. Burant, S. S. Iyengar, J. Tomasi, 
 M. Cossi, N. Rega, J. M. Millam, M. Klene, J. E. Knox, J. B. Cross, 
 V. Bakken, C. Adamo, J. Jaramillo, R. Gomperts, R. E. Stratmann, 
 O. Yazyev, A. J. Austin, R. Cammi, C. Pomelli, J. W. Ochterski, 
 R. L. Martin, K. Morokuma, V. G. Zakrzewski, G. A. Voth, 
 P. Salvador, J. J. Dannenberg, S. Dapprich, A. D. Daniels, 
 O. Farkas, J. B. Foresman, J. V. Ortiz, J. Cioslowski, 
 and D. J. Fox, Gaussian, Inc., Wallingford CT, 2013.
 
 ******************************************
 Gaussian 09:  EM64L-G09RevD.01 24-Apr-2013
                 7-Sep-2016 
 ******************************************
 %chk=EtOCSVinyl_RHF6-31G_scan_0_180.chk
 ---------------------------------------------
 # opt=modredundant hf/6-31g geom=connectivity
 ---------------------------------------------
 1/18=120,19=15,38=1,57=2/1,3;
 2/9=110,12=2,17=6,18=5,40=1/2;
 3/5=1,6=6,11=9,16=1,25=1,30=1,71=1/1,2,3;
 4//1;
 5/5=2,38=5/2;
 6/7=2,8=2,9=2,10=2,28=1/1;
 7//1,2,3,16;
 1/18=20,19=15/3(2);
 2/9=110/2;
 99//99;
 2/9=110/2;
 3/5=1,6=6,11=9,16=1,25=1,30=1,71=1/1,2,3;
 4/5=5,16=3,69=1/1;
 5/5=2,38=5/2;
 7//1,2,3,16;
 1/18=20,19=15/3(-5);
 2/9=110/2;
 6/7=2,8=2,9=2,10=2,19=2,28=1/1;
 99/9=1/99;
 -------------------
 Title Card Required
 -------------------
 Symbolic Z-matrix:
 Charge =  0 Multiplicity = 1
 C                    -3.18503   3.91717   0.66785 
 H                    -2.82585   3.91692  -0.34006 
 H                    -2.82903   4.79058   1.17314 
 H                    -4.25503   3.9179    0.66518 
 Si                   -2.54173   2.33274   1.584 
 H                    -3.03299   2.33442   2.96948 
 H                    -3.03301   1.13282   0.89137 
 C                    -0.60173   2.32964   1.58578 
 H                    -0.07027   1.52568   2.05064 
 C                     0.08266   3.34224   1.00027 
 H                    -0.44295   4.16174   0.55637 
 H                     1.15232   3.32216   0.98182 
 
 The following ModRedundant input section has been read:
 D       1       5       8      10 S  18 10.000                                
 

 GradGradGradGradGradGradGradGradGradGradGradGradGradGradGradGradGradGrad
 Berny optimization.
 Initialization pass.
                           ----------------------------
                           !    Initial Parameters    !
                           ! (Angstroms and Degrees)  !
 --------------------------                            --------------------------
 ! Name  Definition              Value          Derivative Info.                !
 --------------------------------------------------------------------------------
 ! R1    R(1,2)                  1.07           estimate D2E/DX2                !
 ! R2    R(1,3)                  1.07           estimate D2E/DX2                !
 ! R3    R(1,4)                  1.07           estimate D2E/DX2                !
 ! R4    R(1,5)                  1.94           estimate D2E/DX2                !
 ! R5    R(5,6)                  1.47           estimate D2E/DX2                !
 ! R6    R(5,7)                  1.47           estimate D2E/DX2                !
 ! R7    R(5,8)                  1.94           estimate D2E/DX2                !
 ! R8    R(8,9)                  1.07           estimate D2E/DX2                !
 ! R9    R(8,10)                 1.3552         estimate D2E/DX2                !
 ! R10   R(10,11)                1.07           estimate D2E/DX2                !
 ! R11   R(10,12)                1.07           estimate D2E/DX2                !
 ! A1    A(2,1,3)              109.4712         estimate D2E/DX2                !
 ! A2    A(2,1,4)              109.4712         estimate D2E/DX2                !
 ! A3    A(2,1,5)              109.4712         estimate D2E/DX2                !
 ! A4    A(3,1,4)              109.4712         estimate D2E/DX2                !
 ! A5    A(3,1,5)              109.4713         estimate D2E/DX2                !
 ! A6    A(4,1,5)              109.4712         estimate D2E/DX2                !
 ! A7    A(1,5,6)              109.4712         estimate D2E/DX2                !
 ! A8    A(1,5,7)              109.4712         estimate D2E/DX2                !
 ! A9    A(1,5,8)              109.4712         estimate D2E/DX2                !
 ! A10   A(6,5,7)              109.4713         estimate D2E/DX2                !
 ! A11   A(6,5,8)              109.4712         estimate D2E/DX2                !
 ! A12   A(7,5,8)              109.4712         estimate D2E/DX2                !
 ! A13   A(5,8,9)              119.8865         estimate D2E/DX2                !
 ! A14   A(5,8,10)             120.2269         estimate D2E/DX2                !
 ! A15   A(9,8,10)             119.8865         estimate D2E/DX2                !
 ! A16   A(8,10,11)            120.2269         estimate D2E/DX2                !
 ! A17   A(8,10,12)            119.8865         estimate D2E/DX2                !
 ! A18   A(11,10,12)           119.8865         estimate D2E/DX2                !
 ! D1    D(2,1,5,6)            179.8889         estimate D2E/DX2                !
 ! D2    D(2,1,5,7)            -60.1111         estimate D2E/DX2                !
 ! D3    D(2,1,5,8)             59.8889         estimate D2E/DX2                !
 ! D4    D(3,1,5,6)             59.8889         estimate D2E/DX2                !
 ! D5    D(3,1,5,7)            179.8889         estimate D2E/DX2                !
 ! D6    D(3,1,5,8)            -60.1111         estimate D2E/DX2                !
 ! D7    D(4,1,5,6)            -60.1111         estimate D2E/DX2                !
 ! D8    D(4,1,5,7)             59.8889         estimate D2E/DX2                !
 ! D9    D(4,1,5,8)            179.8889         estimate D2E/DX2                !
 ! D10   D(1,5,8,9)            180.0            estimate D2E/DX2                !
 ! D11   D(1,5,8,10)             0.0            Scan                            !
 ! D12   D(6,5,8,9)             60.0            estimate D2E/DX2                !
 ! D13   D(6,5,8,10)          -120.0            estimate D2E/DX2                !
 ! D14   D(7,5,8,9)            -60.0            estimate D2E/DX2                !
 ! D15   D(7,5,8,10)           120.0            estimate D2E/DX2                !
 ! D16   D(5,8,10,11)            1.6069         estimate D2E/DX2                !
 ! D17   D(5,8,10,12)         -178.3931         estimate D2E/DX2                !
 ! D18   D(9,8,10,11)         -178.3931         estimate D2E/DX2                !
 ! D19   D(9,8,10,12)            1.6069         estimate D2E/DX2                !
 --------------------------------------------------------------------------------
 Trust Radius=3.00D-01 FncErr=1.00D-07 GrdErr=1.00D-07
 Number of optimizations in scan=  19
 Number of steps in this run=     58 maximum allowed number of steps=    100.
 GradGradGradGradGradGradGradGradGradGradGradGradGradGradGradGradGradGrad

                          Input orientation:                          
 ---------------------------------------------------------------------
 Center     Atomic      Atomic             Coordinates (Angstroms)
 Number     Number       Type             X           Y           Z
 ---------------------------------------------------------------------
      1          6           0       -3.185031    3.917170    0.667854
      2          1           0       -2.825846    3.916917   -0.340058
      3          1           0       -2.829031    4.790583    1.173138
      4          1           0       -4.255027    3.917897    0.665181
      5         14           0       -2.541728    2.332736    1.584004
      6          1           0       -3.032993    2.334425    2.969484
      7          1           0       -3.033009    1.132816    0.891375
      8          6           0       -0.601731    2.329641    1.585778
      9          1           0       -0.070274    1.525680    2.050643
     10          6           0        0.082664    3.342236    1.000268
     11          1           0       -0.442952    4.161736    0.556367
     12          1           0        1.152317    3.322163    0.981816
 ---------------------------------------------------------------------
                    Distance matrix (angstroms):
                    1          2          3          4          5
     1  C    0.000000
     2  H    1.070000   0.000000
     3  H    1.070000   1.747302   0.000000
     4  H    1.070000   1.747303   1.747303   0.000000
     5  Si   1.940000   2.508459   2.508459   2.508459   0.000000
     6  H    2.797445   3.674270   3.049783   3.051321   1.470000
     7  H    2.797445   3.051321   3.674270   3.049782   1.470000
     8  C    3.168007   3.342899   3.344753   4.088597   1.940000
     9  H    4.163297   4.361954   4.363525   5.015413   2.641434
    10  C    3.334498   3.253638   3.256618   4.388534   2.871806
    11  H    2.755220   2.557674   2.543468   3.821415   2.967514
    12  H    4.389213   4.234012   4.247822   5.449268   3.871377
                    6          7          8          9         10
     6  H    0.000000
     7  H    2.400500   0.000000
     8  C    2.797445   2.797445   0.000000
     9  H    3.205627   3.205627   1.070000   0.000000
    10  C    3.821101   3.821101   1.355200   2.103938   0.000000
    11  H    3.983781   3.999373   2.107479   3.052956   1.070000
    12  H    4.737433   4.724232   2.103938   2.421667   1.070000
                   11         12
    11  H    0.000000
    12  H    1.852234   0.000000
 Stoichiometry    C3H8Si
 Framework group  C1[X(C3H8Si)]
 Deg. of freedom    30
 Full point group                 C1      NOp   1
 Largest Abelian subgroup         C1      NOp   1
 Largest concise Abelian subgroup C1      NOp   1
                         Standard orientation:                         
 ---------------------------------------------------------------------
 Center     Atomic      Atomic             Coordinates (Angstroms)
 Number     Number       Type             X           Y           Z
 ---------------------------------------------------------------------
      1          6           0        1.474818    1.045713    0.001638
      2          1           0        1.170231    1.584475    0.874485
      3          1           0        1.174391    1.584210   -0.872813
      4          1           0        2.539061    0.934895    0.004188
      5         14           0        0.642200   -0.706527   -0.000079
      6          1           0        1.058552   -1.445696   -1.200570
      7          1           0        1.057041   -1.447329    1.199929
      8          6           0       -1.287367   -0.505606   -0.001157
      9          1           0       -1.913743   -1.373104   -0.002141
     10          6           0       -1.844671    0.729699   -0.000667
     11          1           0       -1.223775    1.600771   -0.025609
     12          1           0       -2.909240    0.834323    0.024749
 ---------------------------------------------------------------------
 Rotational constants (GHZ):      8.9863810      3.9461919      2.8809867
 Standard basis: 6-31G (6D, 7F)
 There are    56 symmetry adapted cartesian basis functions of A   symmetry.
 There are    56 symmetry adapted basis functions of A   symmetry.
    56 basis functions,   144 primitive gaussians,    56 cartesian basis functions
    20 alpha electrons       20 beta electrons
       nuclear repulsion energy       154.6171018871 Hartrees.
 NAtoms=   12 NActive=   12 NUniq=   12 SFac= 1.00D+00 NAtFMM=   60 NAOKFM=F Big=F
 Integral buffers will be    131072 words long.
 Raffenetti 1 integral format.
 Two-electron integral symmetry is turned on.
 One-electron integrals computed using PRISM.
 NBasis=    56 RedAO= T EigKep=  9.05D-03  NBF=    56
 NBsUse=    56 1.00D-06 EigRej= -1.00D+00 NBFU=    56
 ExpMin= 7.78D-02 ExpMax= 1.61D+04 ExpMxC= 2.43D+03 IAcc=2 IRadAn=         4 AccDes= 0.00D+00
 Harris functional with IExCor=  205 and IRadAn=       4 diagonalized for initial guess.
 HarFok:  IExCor=  205 AccDes= 0.00D+00 IRadAn=         4 IDoV= 1 UseB2=F ITyADJ=14
 ICtDFT=  3500011 ScaDFX=  1.000000  1.000000  1.000000  1.000000
 FoFCou: FMM=F IPFlag=           0 FMFlag=      100000 FMFlg1=           0
         NFxFlg=           0 DoJE=T BraDBF=F KetDBF=T FulRan=T
         wScrn=  0.000000 ICntrl=     500 IOpCl=  0 I1Cent=   200000004 NGrid=           0
         NMat0=    1 NMatS0=      1 NMatT0=    0 NMatD0=    1 NMtDS0=    0 NMtDT0=    0
 Petite list used in FoFCou.
 Keep R1 ints in memory in canonical form, NReq=2143316.
 Requested convergence on RMS density matrix=1.00D-08 within 128 cycles.
 Requested convergence on MAX density matrix=1.00D-06.
 Requested convergence on             energy=1.00D-06.
 No special actions if energy rises.
 SCF Done:  E(RHF) =  -407.066685369     A.U. after   12 cycles
            NFock= 12  Conv=0.42D-08     -V/T= 1.9994

 **********************************************************************

            Population analysis using the SCF density.

 **********************************************************************

 Orbital symmetries:
       Occupied  (A) (A) (A) (A) (A) (A) (A) (A) (A) (A) (A) (A)
                 (A) (A) (A) (A) (A) (A) (A) (A)
       Virtual   (A) (A) (A) (A) (A) (A) (A) (A) (A) (A) (A) (A)
                 (A) (A) (A) (A) (A) (A) (A) (A) (A) (A) (A) (A)
                 (A) (A) (A) (A) (A) (A) (A) (A) (A) (A) (A) (A)
 The electronic state is 1-A.
 Alpha  occ. eigenvalues --  -68.77676 -11.23826 -11.23068 -11.20659  -6.14065
 Alpha  occ. eigenvalues --   -4.24630  -4.24571  -4.24497  -1.03148  -0.95013
 Alpha  occ. eigenvalues --   -0.79020  -0.69159  -0.62783  -0.57135  -0.56862
 Alpha  occ. eigenvalues --   -0.54768  -0.47312  -0.44070  -0.42562  -0.36553
 Alpha virt. eigenvalues --    0.15080   0.16845   0.18885   0.24265   0.26218
 Alpha virt. eigenvalues --    0.27570   0.30499   0.30587   0.30709   0.31591
 Alpha virt. eigenvalues --    0.38239   0.40801   0.41783   0.46857   0.52578
 Alpha virt. eigenvalues --    0.54383   0.71955   0.76532   0.78745   0.84494
 Alpha virt. eigenvalues --    0.89138   0.94912   0.95746   1.04771   1.15155
 Alpha virt. eigenvalues --    1.19102   1.21604   1.22817   1.24579   1.25718
 Alpha virt. eigenvalues --    1.28401   1.30688   1.32954   1.35079   1.43745
 Alpha virt. eigenvalues --    1.58622
          Condensed to atoms (all electrons):
               1          2          3          4          5          6
     1  C    5.508934   0.369804   0.369875   0.371342   0.323624  -0.027219
     2  H    0.369804   0.516282  -0.023697  -0.021877  -0.019992   0.000903
     3  H    0.369875  -0.023697   0.516816  -0.021947  -0.019968  -0.000845
     4  H    0.371342  -0.021877  -0.021947   0.509130  -0.019026   0.000064
     5  Si   0.323624  -0.019992  -0.019968  -0.019026  11.663995   0.363515
     6  H   -0.027219   0.000903  -0.000845   0.000064   0.363515   0.931510
     7  H   -0.027210  -0.000850   0.000900   0.000035   0.363818  -0.031848
     8  C   -0.037369   0.000598   0.000583   0.000820   0.313191  -0.029291
     9  H    0.000307   0.000002   0.000001  -0.000005  -0.016837   0.000357
    10  C    0.004496  -0.000352  -0.000455   0.000004  -0.019810  -0.000788
    11  H   -0.001851   0.000031   0.000027   0.000112  -0.005122   0.000013
    12  H    0.000099  -0.000011  -0.000009  -0.000001   0.003133  -0.000029
               7          8          9         10         11         12
     1  C   -0.027210  -0.037369   0.000307   0.004496  -0.001851   0.000099
     2  H   -0.000850   0.000598   0.000002  -0.000352   0.000031  -0.000011
     3  H    0.000900   0.000583   0.000001  -0.000455   0.000027  -0.000009
     4  H    0.000035   0.000820  -0.000005   0.000004   0.000112  -0.000001
     5  Si   0.363818   0.313191  -0.016837  -0.019810  -0.005122   0.003133
     6  H   -0.031848  -0.029291   0.000357  -0.000788   0.000013  -0.000029
     7  H    0.930660  -0.028884   0.000265  -0.000865   0.000003  -0.000029
     8  C   -0.028884   5.464926   0.388351   0.554960  -0.045361  -0.047842
     9  H    0.000265   0.388351   0.490156  -0.032440   0.002935  -0.004356
    10  C   -0.000865   0.554960  -0.032440   5.008549   0.400018   0.398898
    11  H    0.000003  -0.045361   0.002935   0.400018   0.508207  -0.025159
    12  H   -0.000029  -0.047842  -0.004356   0.398898  -0.025159   0.507368
 Mulliken charges:
               1
     1  C   -0.854832
     2  H    0.179161
     3  H    0.178719
     4  H    0.181351
     5  Si   1.069479
     6  H   -0.206341
     7  H   -0.205995
     8  C   -0.534681
     9  H    0.171265
    10  C   -0.312212
    11  H    0.166149
    12  H    0.167938
 Sum of Mulliken charges =   0.00000
 Mulliken charges with hydrogens summed into heavy atoms:
               1
     1  C   -0.315601
     5  Si   0.657143
     8  C   -0.363416
    10  C    0.021874
 Electronic spatial extent (au):  <R**2>=            478.8818
 Charge=              0.0000 electrons
 Dipole moment (field-independent basis, Debye):
    X=             -0.2207    Y=              0.4808    Z=              0.0094  Tot=              0.5291
 Quadrupole moment (field-independent basis, Debye-Ang):
   XX=            -33.3662   YY=            -34.5557   ZZ=            -37.4987
   XY=              0.4120   XZ=             -0.0343   YZ=             -0.0256
 Traceless Quadrupole moment (field-independent basis, Debye-Ang):
   XX=              1.7740   YY=              0.5845   ZZ=             -2.3585
   XY=              0.4120   XZ=             -0.0343   YZ=             -0.0256
 Octapole moment (field-independent basis, Debye-Ang**2):
  XXX=             -5.7632  YYY=              3.3942  ZZZ=              0.0220  XYY=             -5.8292
  XXY=              1.0648  XXZ=              0.1948  XZZ=              0.7595  YZZ=              4.2387
  YYZ=             -0.0473  XYZ=             -0.0328
 Hexadecapole moment (field-independent basis, Debye-Ang**3):
 XXXX=           -384.7043 YYYY=           -215.2920 ZZZZ=            -72.4589 XXXY=             -0.8678
 XXXZ=             -0.5672 YYYX=              4.5007 YYYZ=             -0.1018 ZZZX=             -0.0250
 ZZZY=             -0.0295 XXYY=           -106.4866 XXZZ=            -89.4176 YYZZ=            -51.0308
 XXYZ=              0.1076 YYXZ=              0.0539 ZZXY=              4.9489
 N-N= 1.546171018871D+02 E-N=-1.273034346355D+03  KE= 4.072942677580D+02
 Calling FoFJK, ICntrl=      2127 FMM=F ISym2X=0 I1Cent= 0 IOpClX= 0 NMat=1 NMatS=1 NMatT=0.
 ***** Axes restored to original set *****
 -------------------------------------------------------------------
 Center     Atomic                   Forces (Hartrees/Bohr)
 Number     Number              X              Y              Z
 -------------------------------------------------------------------
      1        6           0.007691227   -0.018796111    0.010810418
      2        1           0.001550327    0.001856470   -0.009811463
      3        1           0.001489790    0.009457051    0.003317203
      4        1          -0.009763258    0.001815804   -0.001042984
      5       14           0.017887279    0.014060940   -0.007241674
      6        1          -0.004509151   -0.001732644    0.009112603
      7        1          -0.004169397   -0.008730946   -0.003099363
      8        6          -0.003831487    0.031142598   -0.017206532
      9        1           0.002870263   -0.004191924    0.000966914
     10        6          -0.018081486   -0.034651858    0.019916548
     11        1           0.005188997    0.003568261   -0.003419972
     12        1           0.003676896    0.006202359   -0.002301698
 -------------------------------------------------------------------
 Cartesian Forces:  Max     0.034651858 RMS     0.011730595

 GradGradGradGradGradGradGradGradGradGradGradGradGradGradGradGradGradGrad
 Berny optimization.
 FormGI is forming the generalized inverse of G from B-inverse, IUseBI=4.
 Internal  Forces:  Max     0.029377925 RMS     0.006328932
 Search for a local minimum.
 Step number   1 out of a maximum of   58 on scan point     1 out of    19
 All quantities printed in internal units (Hartrees-Bohrs-Radians)
 Mixed Optimization -- RFO/linear search
 Second derivative matrix not updated -- first step.
 ITU=  0
     Eigenvalues ---    0.00239   0.00823   0.02681   0.02681   0.03374
     Eigenvalues ---    0.05411   0.05721   0.05721   0.08670   0.11151
     Eigenvalues ---    0.16000   0.16000   0.16000   0.16000   0.16000
     Eigenvalues ---    0.16000   0.17593   0.17593   0.18253   0.18253
     Eigenvalues ---    0.21983   0.22000   0.37230   0.37230   0.37230
     Eigenvalues ---    0.37230   0.37230   0.37230   0.539301000.00000
     Eigenvalues --- 1000.000001000.000001000.000001000.000001000.00000
     Eigenvalues --- 1000.000001000.000001000.000001000.000001000.00000
     Eigenvalues --- 1000.000001000.000001000.000001000.000001000.00000
     Eigenvalues --- 1000.000001000.000001000.00000
 RFO step:  Lambda=-6.54949502D-03 EMin= 2.38596674D-03
 Linear search not attempted -- first point.
 Iteration  1 RMS(Cart)=  0.04597253 RMS(Int)=  0.00118862
 Iteration  2 RMS(Cart)=  0.00126331 RMS(Int)=  0.00007413
 Iteration  3 RMS(Cart)=  0.00000074 RMS(Int)=  0.00007412
 Iteration  1 RMS(Cart)=  0.00000501 RMS(Int)=  0.00000345
 Iteration  2 RMS(Cart)=  0.00000297 RMS(Int)=  0.00000384
 Iteration  3 RMS(Cart)=  0.00000176 RMS(Int)=  0.00000438
 Iteration  4 RMS(Cart)=  0.00000104 RMS(Int)=  0.00000477
 Iteration  5 RMS(Cart)=  0.00000062 RMS(Int)=  0.00000502
 Variable       Old X    -DE/DX   Delta X   Delta X   Delta X     New X
                                 (Linear)    (Quad)   (Total)
    R1        2.02201   0.00976   0.00000   0.02577   0.02577   2.04777
    R2        2.02201   0.00978   0.00000   0.02582   0.02582   2.04783
    R3        2.02201   0.00977   0.00000   0.02578   0.02578   2.04779
    R4        3.66607  -0.00649   0.00000  -0.03559  -0.03559   3.63048
    R5        2.77790   0.01009   0.00000   0.05338   0.05338   2.83128
    R6        2.77790   0.00998   0.00000   0.05279   0.05279   2.83068
    R7        3.66607  -0.01018   0.00000  -0.05580  -0.05580   3.61027
    R8        2.02201   0.00500   0.00000   0.01319   0.01319   2.03519
    R9        2.56096  -0.02938   0.00000  -0.05382  -0.05382   2.50714
   R10        2.02201   0.00160   0.00000   0.00423   0.00423   2.02624
   R11        2.02201   0.00360   0.00000   0.00950   0.00950   2.03151
    A1        1.91063  -0.00221   0.00000  -0.00885  -0.00911   1.90152
    A2        1.91063  -0.00250   0.00000  -0.01710  -0.01715   1.89349
    A3        1.91063   0.00276   0.00000   0.01769   0.01753   1.92817
    A4        1.91063  -0.00253   0.00000  -0.01745  -0.01750   1.89314
    A5        1.91063   0.00279   0.00000   0.01779   0.01763   1.92826
    A6        1.91063   0.00169   0.00000   0.00793   0.00788   1.91852
    A7        1.91063  -0.00063   0.00000   0.00142   0.00122   1.91186
    A8        1.91063  -0.00045   0.00000   0.00033   0.00026   1.91089
    A9        1.91063   0.00388   0.00000   0.02417   0.02399   1.93462
   A10        1.91063  -0.00116   0.00000  -0.02830  -0.02831   1.88233
   A11        1.91063  -0.00060   0.00000   0.00399   0.00382   1.91445
   A12        1.91063  -0.00104   0.00000  -0.00162  -0.00171   1.90892
   A13        2.09241  -0.00518   0.00000  -0.02213  -0.02213   2.07028
   A14        2.09836   0.01126   0.00000   0.04970   0.04970   2.14805
   A15        2.09241  -0.00608   0.00000  -0.02757  -0.02758   2.06484
   A16        2.09836   0.00487   0.00000   0.02924   0.02924   2.12759
   A17        2.09241   0.00420   0.00000   0.02524   0.02524   2.11765
   A18        2.09241  -0.00907   0.00000  -0.05447  -0.05447   2.03794
    D1        3.13965   0.00145   0.00000   0.02312   0.02320  -3.12033
    D2       -1.04914  -0.00063   0.00000  -0.01046  -0.01043  -1.05956
    D3        1.04526   0.00020   0.00000   0.00256   0.00262   1.04788
    D4        1.04526   0.00076   0.00000   0.01224   0.01220   1.05746
    D5        3.13965  -0.00132   0.00000  -0.02135  -0.02142   3.11823
    D6       -1.04914  -0.00049   0.00000  -0.00832  -0.00838  -1.05751
    D7       -1.04914   0.00111   0.00000   0.01787   0.01789  -1.03125
    D8        1.04526  -0.00097   0.00000  -0.01572  -0.01574   1.02952
    D9        3.13965  -0.00013   0.00000  -0.00269  -0.00269   3.13696
   D10        3.14159   0.00005   0.00000   0.00510   0.00512  -3.13647
   D11        0.00000  -0.00008   0.00000   0.00000   0.00000   0.00000
   D12        1.04720  -0.00117   0.00000  -0.01388  -0.01393   1.03327
   D13       -2.09439  -0.00131   0.00000  -0.01898  -0.01905  -2.11344
   D14       -1.04720   0.00125   0.00000   0.01932   0.01934  -1.02786
   D15        2.09439   0.00111   0.00000   0.01422   0.01422   2.10861
   D16        0.02805  -0.00091   0.00000  -0.02668  -0.02668   0.00137
   D17       -3.11355  -0.00090   0.00000  -0.02657  -0.02657  -3.14011
   D18       -3.11355  -0.00104   0.00000  -0.03178  -0.03178   3.13785
   D19        0.02805  -0.00104   0.00000  -0.03167  -0.03167  -0.00363
         Item               Value     Threshold  Converged?
 Maximum Force            0.029378     0.000450     NO 
 RMS     Force            0.006396     0.000300     NO 
 Maximum Displacement     0.184725     0.001800     NO 
 RMS     Displacement     0.045549     0.001200     NO 
 Predicted change in Energy=-3.383016D-03
 GradGradGradGradGradGradGradGradGradGradGradGradGradGradGradGradGradGrad

                          Input orientation:                          
 ---------------------------------------------------------------------
 Center     Atomic      Atomic             Coordinates (Angstroms)
 Number     Number       Type             X           Y           Z
 ---------------------------------------------------------------------
      1          6           0       -3.209418    3.910203    0.674979
      2          1           0       -2.872528    3.932662   -0.354713
      3          1           0       -2.877895    4.813481    1.173482
      4          1           0       -4.292891    3.892286    0.681750
      5         14           0       -2.523367    2.356455    1.572797
      6          1           0       -3.025410    2.330693    2.984193
      7          1           0       -3.021088    1.121891    0.885827
      8          6           0       -0.612898    2.357243    1.569067
      9          1           0       -0.095800    1.536741    2.037325
     10          6           0        0.109642    3.319820    1.010888
     11          1           0       -0.345200    4.161226    0.526274
     12          1           0        1.184211    3.291299    1.023979
 ---------------------------------------------------------------------
                    Distance matrix (angstroms):
                    1          2          3          4          5
     1  C    0.000000
     2  H    1.083636   0.000000
     3  H    1.083663   1.763875   0.000000
     4  H    1.083643   1.758783   1.758584   0.000000
     5  Si   1.921165   2.514288   2.514383   2.506782   0.000000
     6  H    2.803779   3.706478   3.076471   3.057176   1.498249
     7  H    2.802607   3.075947   3.705549   3.055196   1.497933
     8  C    3.154836   3.359882   3.364492   4.084854   1.910473
     9  H    4.145350   4.378643   4.384439   5.000175   2.603997
    10  C    3.387853   3.336732   3.344075   4.451780   2.859467
    11  H    2.879040   2.686218   2.694227   3.959895   3.016094
    12  H    4.450710   4.332352   4.340518   5.520594   3.862806
                    6          7          8          9         10
     6  H    0.000000
     7  H    2.421645   0.000000
     8  C    2.797052   2.791468   0.000000
     9  H    3.179550   3.171019   1.076978   0.000000
    10  C    3.834170   3.827272   1.326719   2.067644   0.000000
    11  H    4.071332   4.065368   2.100818   3.038651   1.072239
    12  H    4.741953   4.733916   2.097424   2.396618   1.075027
                   11         12
    11  H    0.000000
    12  H    1.828546   0.000000
 Stoichiometry    C3H8Si
 Framework group  C1[X(C3H8Si)]
 Deg. of freedom    30
 Full point group                 C1      NOp   1
 Largest Abelian subgroup         C1      NOp   1
 Largest concise Abelian subgroup C1      NOp   1
                         Standard orientation:                         
 ---------------------------------------------------------------------
 Center     Atomic      Atomic             Coordinates (Angstroms)
 Number     Number       Type             X           Y           Z
 ---------------------------------------------------------------------
      1          6           0        1.508609    1.015223    0.000397
      2          1           0        1.232163    1.584498    0.880039
      3          1           0        1.240141    1.581280   -0.883814
      4          1           0        2.583173    0.875333    0.005297
      5         14           0        0.626272   -0.691339   -0.000360
      6          1           0        1.045703   -1.471821   -1.208530
      7          1           0        1.037841   -1.467184    1.213097
      8          6           0       -1.271941   -0.475256   -0.000689
      9          1           0       -1.891405   -1.356236    0.003729
     10          6           0       -1.865578    0.711243   -0.000420
     11          1           0       -1.305049    1.625301   -0.001243
     12          1           0       -2.936909    0.800310    0.000742
 ---------------------------------------------------------------------
 Rotational constants (GHZ):      9.3076588      3.8875849      2.8837691
 Standard basis: 6-31G (6D, 7F)
 There are    56 symmetry adapted cartesian basis functions of A   symmetry.
 There are    56 symmetry adapted basis functions of A   symmetry.
    56 basis functions,   144 primitive gaussians,    56 cartesian basis functions
    20 alpha electrons       20 beta electrons
       nuclear repulsion energy       155.0114737261 Hartrees.
 NAtoms=   12 NActive=   12 NUniq=   12 SFac= 1.00D+00 NAtFMM=   60 NAOKFM=F Big=F
 Integral buffers will be    131072 words long.
 Raffenetti 1 integral format.
 Two-electron integral symmetry is turned on.
 One-electron integrals computed using PRISM.
 NBasis=    56 RedAO= T EigKep=  8.13D-03  NBF=    56
 NBsUse=    56 1.00D-06 EigRej= -1.00D+00 NBFU=    56
 Initial guess from the checkpoint file:  "EtOCSVinyl_RHF6-31G_scan_0_180.chk"
 B after Tr=     0.000000    0.000000    0.000000
         Rot=    0.999995    0.000234    0.000125    0.003094 Ang=   0.36 deg.
 ExpMin= 7.78D-02 ExpMax= 1.61D+04 ExpMxC= 2.43D+03 IAcc=2 IRadAn=         4 AccDes= 0.00D+00
 Harris functional with IExCor=  205 and IRadAn=       4 diagonalized for initial guess.
 HarFok:  IExCor=  205 AccDes= 0.00D+00 IRadAn=         4 IDoV= 1 UseB2=F ITyADJ=14
 ICtDFT=  3500011 ScaDFX=  1.000000  1.000000  1.000000  1.000000
 FoFCou: FMM=F IPFlag=           0 FMFlag=      100000 FMFlg1=           0
         NFxFlg=           0 DoJE=T BraDBF=F KetDBF=T FulRan=T
         wScrn=  0.000000 ICntrl=     500 IOpCl=  0 I1Cent=   200000004 NGrid=           0
         NMat0=    1 NMatS0=      1 NMatT0=    0 NMatD0=    1 NMtDS0=    0 NMtDT0=    0
 Petite list used in FoFCou.
 Keep R1 ints in memory in canonical form, NReq=2143289.
 Requested convergence on RMS density matrix=1.00D-08 within 128 cycles.
 Requested convergence on MAX density matrix=1.00D-06.
 Requested convergence on             energy=1.00D-06.
 No special actions if energy rises.
 SCF Done:  E(RHF) =  -407.070353418     A.U. after   11 cycles
            NFock= 11  Conv=0.45D-08     -V/T= 1.9994
 Calling FoFJK, ICntrl=      2127 FMM=F ISym2X=0 I1Cent= 0 IOpClX= 0 NMat=1 NMatS=1 NMatT=0.
 ***** Axes restored to original set *****
 -------------------------------------------------------------------
 Center     Atomic                   Forces (Hartrees/Bohr)
 Number     Number              X              Y              Z
 -------------------------------------------------------------------
      1        6           0.001425637   -0.004079266    0.002490282
      2        1          -0.000570696    0.001022249   -0.000228619
      3        1          -0.000547146    0.000727842   -0.000804076
      4        1          -0.000183143    0.000730954   -0.000440843
      5       14           0.002367039    0.001359603   -0.001012535
      6        1          -0.000079413   -0.000759281   -0.000351322
      7        1          -0.000330032   -0.000205192    0.000857322
      8        6          -0.004873625    0.000138994   -0.000245764
      9        1          -0.001014325   -0.001119517    0.000891430
     10        6           0.001732542   -0.002128652    0.001306836
     11        1           0.001603425    0.002207118   -0.001152817
     12        1           0.000469736    0.002105146   -0.001309894
 -------------------------------------------------------------------
 Cartesian Forces:  Max     0.004873625 RMS     0.001580198

 GradGradGradGradGradGradGradGradGradGradGradGradGradGradGradGradGradGrad
 Berny optimization.
 Using GEDIIS/GDIIS optimizer.
 FormGI is forming the generalized inverse of G from B-inverse, IUseBI=4.
 Internal  Forces:  Max     0.004165358 RMS     0.001374644
 Search for a local minimum.
 Step number   2 out of a maximum of   58 on scan point     1 out of    19
 All quantities printed in internal units (Hartrees-Bohrs-Radians)
 Mixed Optimization -- RFO/linear search
 Update second derivatives using D2CorX and points    1    2
 DE= -3.67D-03 DEPred=-3.38D-03 R= 1.08D+00
 TightC=F SS=  1.41D+00  RLast= 1.81D-01 DXNew= 5.0454D-01 5.4187D-01
 Trust test= 1.08D+00 RLast= 1.81D-01 DXMaxT set to 5.05D-01
 ITU=  1  0
 Use linear search instead of GDIIS.
     Eigenvalues ---    0.00239   0.00819   0.02681   0.02712   0.03210
     Eigenvalues ---    0.05204   0.05526   0.05612   0.08897   0.11385
     Eigenvalues ---    0.13483   0.16000   0.16000   0.16000   0.16000
     Eigenvalues ---    0.16100   0.17300   0.17598   0.18253   0.18885
     Eigenvalues ---    0.20930   0.21958   0.36959   0.37230   0.37230
     Eigenvalues ---    0.37230   0.37230   0.37791   0.605281000.00000
     Eigenvalues --- 1000.000001000.000001000.000001000.000001000.00000
     Eigenvalues --- 1000.000001000.000001000.000001000.000001000.00000
     Eigenvalues --- 1000.000001000.000001000.000001000.000001000.00000
     Eigenvalues --- 1000.000001000.000001000.00000
 RFO step:  Lambda=-4.66410991D-04 EMin= 2.38598002D-03
 Quartic linear search produced a step of  0.13072.
 Iteration  1 RMS(Cart)=  0.02720530 RMS(Int)=  0.00029834
 Iteration  2 RMS(Cart)=  0.00032692 RMS(Int)=  0.00003534
 Iteration  3 RMS(Cart)=  0.00000004 RMS(Int)=  0.00003534
 Iteration  1 RMS(Cart)=  0.00000453 RMS(Int)=  0.00000319
 Iteration  2 RMS(Cart)=  0.00000269 RMS(Int)=  0.00000356
 Iteration  3 RMS(Cart)=  0.00000160 RMS(Int)=  0.00000405
 Iteration  4 RMS(Cart)=  0.00000095 RMS(Int)=  0.00000442
 Variable       Old X    -DE/DX   Delta X   Delta X   Delta X     New X
                                 (Linear)    (Quad)   (Total)
    R1        2.04777   0.00006   0.00337  -0.00148   0.00189   2.04967
    R2        2.04783   0.00007   0.00338  -0.00145   0.00192   2.04975
    R3        2.04779   0.00017   0.00337  -0.00115   0.00222   2.05001
    R4        3.63048  -0.00181  -0.00465  -0.00920  -0.01385   3.61662
    R5        2.83128  -0.00029   0.00698  -0.00541   0.00157   2.83285
    R6        2.83068  -0.00011   0.00690  -0.00427   0.00263   2.83331
    R7        3.61027  -0.00208  -0.00729  -0.00955  -0.01685   3.59342
    R8        2.03519   0.00075   0.00172   0.00144   0.00316   2.03835
    R9        2.50714   0.00414  -0.00704   0.01210   0.00506   2.51220
   R10        2.02624   0.00157   0.00055   0.00450   0.00505   2.03129
   R11        2.03151   0.00040   0.00124   0.00059   0.00184   2.03334
    A1        1.90152  -0.00126  -0.00119  -0.00766  -0.00894   1.89258
    A2        1.89349  -0.00104  -0.00224  -0.00661  -0.00888   1.88461
    A3        1.92817   0.00125   0.00229   0.00769   0.00991   1.93808
    A4        1.89314  -0.00103  -0.00229  -0.00622  -0.00853   1.88460
    A5        1.92826   0.00130   0.00230   0.00817   0.01041   1.93867
    A6        1.91852   0.00069   0.00103   0.00402   0.00502   1.92354
    A7        1.91186  -0.00013   0.00016   0.00082   0.00096   1.91281
    A8        1.91089  -0.00017   0.00003   0.00303   0.00298   1.91388
    A9        1.93462   0.00183   0.00314   0.01153   0.01458   1.94920
   A10        1.88233  -0.00050  -0.00370  -0.01328  -0.01699   1.86533
   A11        1.91445  -0.00069   0.00050  -0.00419  -0.00375   1.91070
   A12        1.90892  -0.00041  -0.00022   0.00142   0.00109   1.91001
   A13        2.07028  -0.00368  -0.00289  -0.02045  -0.02336   2.04693
   A14        2.14805   0.00417   0.00650   0.01806   0.02455   2.17260
   A15        2.06484  -0.00049  -0.00360   0.00243  -0.00118   2.06366
   A16        2.12759   0.00170   0.00382   0.00998   0.01380   2.14139
   A17        2.11765   0.00168   0.00330   0.01011   0.01341   2.13106
   A18        2.03794  -0.00338  -0.00712  -0.02008  -0.02720   2.01074
    D1       -3.12033   0.00039   0.00303   0.00787   0.01094  -3.10939
    D2       -1.05956  -0.00039  -0.00136  -0.00598  -0.00735  -1.06691
    D3        1.04788   0.00016   0.00034   0.00513   0.00549   1.05337
    D4        1.05746   0.00030   0.00160   0.00707   0.00867   1.06613
    D5        3.11823  -0.00048  -0.00280  -0.00678  -0.00962   3.10861
    D6       -1.05751   0.00007  -0.00110   0.00433   0.00322  -1.05429
    D7       -1.03125   0.00033   0.00234   0.00708   0.00943  -1.02182
    D8        1.02952  -0.00045  -0.00206  -0.00678  -0.00886   1.02066
    D9        3.13696   0.00010  -0.00035   0.00433   0.00398   3.14094
   D10       -3.13647  -0.00009   0.00067  -0.00843  -0.00774   3.13898
   D11        0.00000   0.00001   0.00000   0.00000  -0.00001   0.00000
   D12        1.03327  -0.00065  -0.00182  -0.01415  -0.01594   1.01733
   D13       -2.11344  -0.00055  -0.00249  -0.00572  -0.00821  -2.12165
   D14       -1.02786   0.00060   0.00253   0.00362   0.00617  -1.02169
   D15        2.10861   0.00070   0.00186   0.01204   0.01390   2.12252
   D16        0.00137   0.00005  -0.00349   0.00274  -0.00078   0.00059
   D17       -3.14011   0.00002  -0.00347   0.00169  -0.00182   3.14125
   D18        3.13785   0.00014  -0.00415   0.01108   0.00696  -3.13837
   D19       -0.00363   0.00011  -0.00414   0.01003   0.00592   0.00229
         Item               Value     Threshold  Converged?
 Maximum Force            0.004165     0.000450     NO 
 RMS     Force            0.001389     0.000300     NO 
 Maximum Displacement     0.117092     0.001800     NO 
 RMS     Displacement     0.027220     0.001200     NO 
 Predicted change in Energy=-2.860831D-04
 GradGradGradGradGradGradGradGradGradGradGradGradGradGradGradGradGradGrad

                          Input orientation:                          
 ---------------------------------------------------------------------
 Center     Atomic      Atomic             Coordinates (Angstroms)
 Number     Number       Type             X           Y           Z
 ---------------------------------------------------------------------
      1          6           0       -3.227164    3.905559    0.677537
      2          1           0       -2.907163    3.940183   -0.358242
      3          1           0       -2.906386    4.819147    1.166403
      4          1           0       -4.311597    3.880828    0.692340
      5         14           0       -2.518513    2.364884    1.564607
      6          1           0       -3.016366    2.325152    2.978045
      7          1           0       -3.017999    1.121415    0.892098
      8          6           0       -0.616957    2.365376    1.562017
      9          1           0       -0.121695    1.536151    2.042210
     10          6           0        0.134663    3.315018    1.013797
     11          1           0       -0.283237    4.173551    0.520123
     12          1           0        1.209773    3.276734    1.034913
 ---------------------------------------------------------------------
                    Distance matrix (angstroms):
                    1          2          3          4          5
     1  C    0.000000
     2  H    1.084637   0.000000
     3  H    1.084680   1.759863   0.000000
     4  H    1.084817   1.754902   1.754935   0.000000
     5  Si   1.913834   2.515942   2.516430   2.504813   0.000000
     6  H    2.799010   3.708242   3.084503   3.053228   1.499081
     7  H    2.800222   3.085625   3.709572   3.054122   1.499323
     8  C    3.157158   3.378232   3.379200   4.086967   1.901558
     9  H    4.137676   4.393218   4.393132   4.987478   2.580627
    10  C    3.429823   3.395000   3.396126   4.493630   2.871496
    11  H    2.960288   2.776863   2.777658   4.042652   3.059196
    12  H    4.495503   4.396613   4.397623   5.564873   3.874553
                    6          7          8          9         10
     6  H    0.000000
     7  H    2.408353   0.000000
     8  C    2.786382   2.785899   0.000000
     9  H    3.142838   3.143777   1.078649   0.000000
    10  C    3.842797   3.842653   1.329397   2.070682   0.000000
    11  H    4.114360   4.114951   2.113388   3.049381   1.074911
    12  H    4.747792   4.747615   2.108401   2.411863   1.075999
                   11         12
    11  H    0.000000
    12  H    1.816141   0.000000
 Stoichiometry    C3H8Si
 Framework group  C1[X(C3H8Si)]
 Deg. of freedom    30
 Full point group                 C1      NOp   1
 Largest Abelian subgroup         C1      NOp   1
 Largest concise Abelian subgroup C1      NOp   1
                         Standard orientation:                         
 ---------------------------------------------------------------------
 Center     Atomic      Atomic             Coordinates (Angstroms)
 Number     Number       Type             X           Y           Z
 ---------------------------------------------------------------------
      1          6           0        1.526753    1.004811   -0.000072
      2          1           0        1.268803    1.584369    0.879708
      3          1           0        1.269769    1.584417   -0.880155
      4          1           0        2.601237    0.855445    0.000521
      5         14           0        0.624589   -0.683046    0.000059
      6          1           0        1.038116   -1.474258   -1.204193
      7          1           0        1.037246   -1.475402    1.204159
      8          6           0       -1.264956   -0.469643    0.000187
      9          1           0       -1.863812   -1.366776   -0.002240
     10          6           0       -1.889831    0.703741    0.000191
     11          1           0       -1.364276    1.641410   -0.000414
     12          1           0       -2.963125    0.779987   -0.000044
 ---------------------------------------------------------------------
 Rotational constants (GHZ):      9.4365900      3.8316932      2.8636165
 Standard basis: 6-31G (6D, 7F)
 There are    56 symmetry adapted cartesian basis functions of A   symmetry.
 There are    56 symmetry adapted basis functions of A   symmetry.
    56 basis functions,   144 primitive gaussians,    56 cartesian basis functions
    20 alpha electrons       20 beta electrons
       nuclear repulsion energy       154.8794160812 Hartrees.
 NAtoms=   12 NActive=   12 NUniq=   12 SFac= 1.00D+00 NAtFMM=   60 NAOKFM=F Big=F
 Integral buffers will be    131072 words long.
 Raffenetti 1 integral format.
 Two-electron integral symmetry is turned on.
 One-electron integrals computed using PRISM.
 NBasis=    56 RedAO= T EigKep=  8.22D-03  NBF=    56
 NBsUse=    56 1.00D-06 EigRej= -1.00D+00 NBFU=    56
 Initial guess from the checkpoint file:  "EtOCSVinyl_RHF6-31G_scan_0_180.chk"
 B after Tr=     0.000000    0.000000    0.000000
         Rot=    1.000000   -0.000272   -0.000182   -0.000175 Ang=  -0.04 deg.
 ExpMin= 7.78D-02 ExpMax= 1.61D+04 ExpMxC= 2.43D+03 IAcc=2 IRadAn=         4 AccDes= 0.00D+00
 Harris functional with IExCor=  205 and IRadAn=       4 diagonalized for initial guess.
 HarFok:  IExCor=  205 AccDes= 0.00D+00 IRadAn=         4 IDoV= 1 UseB2=F ITyADJ=14
 ICtDFT=  3500011 ScaDFX=  1.000000  1.000000  1.000000  1.000000
 FoFCou: FMM=F IPFlag=           0 FMFlag=      100000 FMFlg1=           0
         NFxFlg=           0 DoJE=T BraDBF=F KetDBF=T FulRan=T
         wScrn=  0.000000 ICntrl=     500 IOpCl=  0 I1Cent=   200000004 NGrid=           0
         NMat0=    1 NMatS0=      1 NMatT0=    0 NMatD0=    1 NMtDS0=    0 NMtDT0=    0
 Petite list used in FoFCou.
 Keep R1 ints in memory in canonical form, NReq=2143260.
 Requested convergence on RMS density matrix=1.00D-08 within 128 cycles.
 Requested convergence on MAX density matrix=1.00D-06.
 Requested convergence on             energy=1.00D-06.
 No special actions if energy rises.
 SCF Done:  E(RHF) =  -407.070649868     A.U. after   10 cycles
            NFock= 10  Conv=0.73D-08     -V/T= 1.9995
 Calling FoFJK, ICntrl=      2127 FMM=F ISym2X=0 I1Cent= 0 IOpClX= 0 NMat=1 NMatS=1 NMatT=0.
 ***** Axes restored to original set *****
 -------------------------------------------------------------------
 Center     Atomic                   Forces (Hartrees/Bohr)
 Number     Number              X              Y              Z
 -------------------------------------------------------------------
      1        6          -0.000416896    0.000012224   -0.000066649
      2        1          -0.000082997    0.000133436    0.000350182
      3        1          -0.000066842   -0.000304422   -0.000272042
      4        1           0.000366035   -0.000007545    0.000005800
      5       14          -0.000771638   -0.000156911    0.000053457
      6        1           0.000307006   -0.000096755   -0.000318214
      7        1           0.000282587    0.000341756    0.000251086
      8        6           0.001163889    0.001586129   -0.000644061
      9        1          -0.000421410   -0.000167971   -0.000087299
     10        6           0.000249734   -0.001018781    0.000633780
     11        1          -0.000454028   -0.000145133   -0.000038998
     12        1          -0.000155442   -0.000176026    0.000132956
 -------------------------------------------------------------------
 Cartesian Forces:  Max     0.001586129 RMS     0.000472011

 GradGradGradGradGradGradGradGradGradGradGradGradGradGradGradGradGradGrad
 Berny optimization.
 Using GEDIIS/GDIIS optimizer.
 FormGI is forming the generalized inverse of G from B-inverse, IUseBI=4.
 Internal  Forces:  Max     0.001460668 RMS     0.000370679
 Search for a local minimum.
 Step number   3 out of a maximum of   58 on scan point     1 out of    19
 All quantities printed in internal units (Hartrees-Bohrs-Radians)
 Mixed Optimization -- En-DIIS/RFO-DIIS
 Update second derivatives using D2CorX and points    1    2    3
 DE= -2.96D-04 DEPred=-2.86D-04 R= 1.04D+00
 TightC=F SS=  1.41D+00  RLast= 7.13D-02 DXNew= 8.4853D-01 2.1376D-01
 Trust test= 1.04D+00 RLast= 7.13D-02 DXMaxT set to 5.05D-01
 ITU=  1  1  0
 Use linear search instead of GDIIS.
     Eigenvalues ---    0.00239   0.00830   0.02682   0.02711   0.03119
     Eigenvalues ---    0.05064   0.05426   0.05539   0.08817   0.11498
     Eigenvalues ---    0.13002   0.16000   0.16000   0.16000   0.16023
     Eigenvalues ---    0.16417   0.17286   0.17650   0.18257   0.19041
     Eigenvalues ---    0.20169   0.22101   0.37108   0.37230   0.37230
     Eigenvalues ---    0.37230   0.37232   0.38236   0.618791000.00000
     Eigenvalues --- 1000.000001000.000001000.000001000.000001000.00000
     Eigenvalues --- 1000.000001000.000001000.000001000.000001000.00000
     Eigenvalues --- 1000.000001000.000001000.000001000.000001000.00000
     Eigenvalues --- 1000.000001000.000001000.00000
 RFO step:  Lambda=-3.04508423D-05 EMin= 2.38602886D-03
 Quartic linear search produced a step of  0.05202.
 Iteration  1 RMS(Cart)=  0.00808769 RMS(Int)=  0.00001875
 Iteration  2 RMS(Cart)=  0.00002677 RMS(Int)=  0.00000417
 Iteration  3 RMS(Cart)=  0.00000000 RMS(Int)=  0.00000417
 Iteration  1 RMS(Cart)=  0.00000049 RMS(Int)=  0.00000035
 Variable       Old X    -DE/DX   Delta X   Delta X   Delta X     New X
                                 (Linear)    (Quad)   (Total)
    R1        2.04967  -0.00035   0.00010  -0.00083  -0.00073   2.04893
    R2        2.04975  -0.00040   0.00010  -0.00096  -0.00086   2.04889
    R3        2.05001  -0.00037   0.00012  -0.00086  -0.00075   2.04926
    R4        3.61662  -0.00007  -0.00072  -0.00069  -0.00141   3.61521
    R5        2.83285  -0.00040   0.00008  -0.00197  -0.00189   2.83097
    R6        2.83331  -0.00049   0.00014  -0.00249  -0.00236   2.83095
    R7        3.59342   0.00038  -0.00088   0.00187   0.00099   3.59442
    R8        2.03835  -0.00010   0.00016  -0.00019  -0.00003   2.03832
    R9        2.51220  -0.00146   0.00026  -0.00317  -0.00291   2.50929
   R10        2.03129   0.00008   0.00026   0.00027   0.00053   2.03182
   R11        2.03334  -0.00015   0.00010  -0.00035  -0.00025   2.03309
    A1        1.89258  -0.00014  -0.00047  -0.00143  -0.00190   1.89068
    A2        1.88461  -0.00002  -0.00046   0.00005  -0.00042   1.88419
    A3        1.93808   0.00014   0.00052   0.00103   0.00154   1.93962
    A4        1.88460   0.00001  -0.00044   0.00004  -0.00041   1.88420
    A5        1.93867   0.00004   0.00054   0.00025   0.00079   1.93946
    A6        1.92354  -0.00004   0.00026   0.00001   0.00027   1.92381
    A7        1.91281  -0.00003   0.00005   0.00145   0.00151   1.91432
    A8        1.91388  -0.00014   0.00016   0.00026   0.00041   1.91429
    A9        1.94920   0.00088   0.00076   0.00481   0.00557   1.95477
   A10        1.86533   0.00009  -0.00088  -0.00109  -0.00198   1.86336
   A11        1.91070  -0.00046  -0.00020  -0.00308  -0.00329   1.90741
   A12        1.91001  -0.00038   0.00006  -0.00264  -0.00259   1.90741
   A13        2.04693  -0.00089  -0.00121  -0.00526  -0.00648   2.04045
   A14        2.17260   0.00092   0.00128   0.00481   0.00608   2.17868
   A15        2.06366  -0.00003  -0.00006   0.00046   0.00040   2.06405
   A16        2.14139  -0.00047   0.00072  -0.00285  -0.00213   2.13926
   A17        2.13106   0.00001   0.00070   0.00026   0.00095   2.13201
   A18        2.01074   0.00046  -0.00142   0.00259   0.00117   2.01191
    D1       -3.10939  -0.00004   0.00057  -0.00017   0.00040  -3.10899
    D2       -1.06691  -0.00003  -0.00038  -0.00049  -0.00087  -1.06779
    D3        1.05337  -0.00002   0.00029  -0.00045  -0.00017   1.05320
    D4        1.06613   0.00001   0.00045   0.00078   0.00123   1.06736
    D5        3.10861   0.00002  -0.00050   0.00046  -0.00005   3.10857
    D6       -1.05429   0.00003   0.00017   0.00049   0.00066  -1.05364
    D7       -1.02182   0.00000   0.00049   0.00056   0.00105  -1.02077
    D8        1.02066   0.00001  -0.00046   0.00024  -0.00022   1.02043
    D9        3.14094   0.00002   0.00021   0.00027   0.00048   3.14142
   D10        3.13898   0.00006  -0.00040   0.00533   0.00493  -3.13928
   D11        0.00000   0.00000   0.00000   0.00000   0.00000   0.00000
   D12        1.01733  -0.00017  -0.00083   0.00243   0.00161   1.01894
   D13       -2.12165  -0.00023  -0.00043  -0.00290  -0.00332  -2.12497
   D14       -1.02169   0.00021   0.00032   0.00703   0.00734  -1.01434
   D15        2.12252   0.00014   0.00072   0.00170   0.00242   2.12493
   D16        0.00059  -0.00006  -0.00004  -0.00100  -0.00103  -0.00044
   D17        3.14125   0.00001  -0.00009   0.00165   0.00156  -3.14037
   D18       -3.13837  -0.00013   0.00036  -0.00637  -0.00601   3.13881
   D19        0.00229  -0.00006   0.00031  -0.00372  -0.00342  -0.00112
         Item               Value     Threshold  Converged?
 Maximum Force            0.001461     0.000450     NO 
 RMS     Force            0.000375     0.000300     NO 
 Maximum Displacement     0.023637     0.001800     NO 
 RMS     Displacement     0.008078     0.001200     NO 
 Predicted change in Energy=-1.591796D-05
 GradGradGradGradGradGradGradGradGradGradGradGradGradGradGradGradGradGrad

                          Input orientation:                          
 ---------------------------------------------------------------------
 Center     Atomic      Atomic             Coordinates (Angstroms)
 Number     Number       Type             X           Y           Z
 ---------------------------------------------------------------------
      1          6           0       -3.234581    3.905837    0.676967
      2          1           0       -2.917751    3.942978   -0.359293
      3          1           0       -2.916870    4.821126    1.163642
      4          1           0       -4.318475    3.876812    0.694327
      5         14           0       -2.517520    2.369260    1.562779
      6          1           0       -3.011367    2.325555    2.976447
      7          1           0       -3.012950    1.124006    0.893358
      8          6           0       -0.615437    2.369013    1.561480
      9          1           0       -0.127056    1.534672    2.039818
     10          6           0        0.142695    3.313076    1.016332
     11          1           0       -0.270729    4.172760    0.520282
     12          1           0        1.217400    3.268904    1.039710
 ---------------------------------------------------------------------
                    Distance matrix (angstroms):
                    1          2          3          4          5
     1  C    0.000000
     2  H    1.084249   0.000000
     3  H    1.084227   1.757975   0.000000
     4  H    1.084422   1.754002   1.753991   0.000000
     5  Si   1.913088   2.516174   2.516036   2.504068   0.000000
     6  H    2.799057   3.708366   3.085946   3.053358   1.498082
     7  H    2.799023   3.086227   3.708232   3.053187   1.498077
     8  C    3.162926   3.386351   3.386403   4.091198   1.902083
     9  H    4.139625   4.398141   4.399037   4.986377   2.576514
    10  C    3.445653   3.414007   3.414214   4.508162   2.875089
    11  H    2.979969   2.798781   2.799349   4.062281   3.063900
    12  H    4.511917   4.417132   4.417798   5.579852   3.877188
                    6          7          8          9         10
     6  H    0.000000
     7  H    2.404783   0.000000
     8  C    2.782894   2.782894   0.000000
     9  H    3.134010   3.132316   1.078633   0.000000
    10  C    3.842571   3.842557   1.327857   2.069543   0.000000
    11  H    4.117767   4.117507   2.111023   3.047809   1.075194
    12  H    4.745874   4.745299   2.107448   2.411501   1.075866
                   11         12
    11  H    0.000000
    12  H    1.816945   0.000000
 Stoichiometry    C3H8Si
 Framework group  C1[X(C3H8Si)]
 Deg. of freedom    30
 Full point group                 C1      NOp   1
 Largest Abelian subgroup         C1      NOp   1
 Largest concise Abelian subgroup C1      NOp   1
                         Standard orientation:                         
 ---------------------------------------------------------------------
 Center     Atomic      Atomic             Coordinates (Angstroms)
 Number     Number       Type             X           Y           Z
 ---------------------------------------------------------------------
      1          6           0        1.536619    0.999675    0.000130
      2          1           0        1.283496    1.582019    0.878993
      3          1           0        1.283930    1.581789   -0.878982
      4          1           0        2.609696    0.843220    0.000418
      5         14           0        0.623144   -0.681238   -0.000059
      6          1           0        1.030370   -1.476666   -1.202437
      7          1           0        1.030113   -1.476745    1.202347
      8          6           0       -1.266632   -0.465209   -0.000258
      9          1           0       -1.860878   -1.365385    0.001856
     10          6           0       -1.896312    0.703854   -0.000264
     11          1           0       -1.373051    1.643130    0.000246
     12          1           0       -2.969752    0.776047    0.000735
 ---------------------------------------------------------------------
 Rotational constants (GHZ):      9.4864224      3.8089935      2.8550634
 Standard basis: 6-31G (6D, 7F)
 There are    56 symmetry adapted cartesian basis functions of A   symmetry.
 There are    56 symmetry adapted basis functions of A   symmetry.
    56 basis functions,   144 primitive gaussians,    56 cartesian basis functions
    20 alpha electrons       20 beta electrons
       nuclear repulsion energy       154.8293679480 Hartrees.
 NAtoms=   12 NActive=   12 NUniq=   12 SFac= 1.00D+00 NAtFMM=   60 NAOKFM=F Big=F
 Integral buffers will be    131072 words long.
 Raffenetti 1 integral format.
 Two-electron integral symmetry is turned on.
 One-electron integrals computed using PRISM.
 NBasis=    56 RedAO= T EigKep=  8.17D-03  NBF=    56
 NBsUse=    56 1.00D-06 EigRej= -1.00D+00 NBFU=    56
 Initial guess from the checkpoint file:  "EtOCSVinyl_RHF6-31G_scan_0_180.chk"
 B after Tr=     0.000000    0.000000    0.000000
         Rot=    1.000000    0.000042   -0.000015    0.000933 Ang=   0.11 deg.
 ExpMin= 7.78D-02 ExpMax= 1.61D+04 ExpMxC= 2.43D+03 IAcc=2 IRadAn=         4 AccDes= 0.00D+00
 Harris functional with IExCor=  205 and IRadAn=       4 diagonalized for initial guess.
 HarFok:  IExCor=  205 AccDes= 0.00D+00 IRadAn=         4 IDoV= 1 UseB2=F ITyADJ=14
 ICtDFT=  3500011 ScaDFX=  1.000000  1.000000  1.000000  1.000000
 FoFCou: FMM=F IPFlag=           0 FMFlag=      100000 FMFlg1=           0
         NFxFlg=           0 DoJE=T BraDBF=F KetDBF=T FulRan=T
         wScrn=  0.000000 ICntrl=     500 IOpCl=  0 I1Cent=   200000004 NGrid=           0
         NMat0=    1 NMatS0=      1 NMatT0=    0 NMatD0=    1 NMtDS0=    0 NMtDT0=    0
 Petite list used in FoFCou.
 Keep R1 ints in memory in canonical form, NReq=2143215.
 Requested convergence on RMS density matrix=1.00D-08 within 128 cycles.
 Requested convergence on MAX density matrix=1.00D-06.
 Requested convergence on             energy=1.00D-06.
 No special actions if energy rises.
 SCF Done:  E(RHF) =  -407.070667702     A.U. after    9 cycles
            NFock=  9  Conv=0.68D-08     -V/T= 1.9994
 Calling FoFJK, ICntrl=      2127 FMM=F ISym2X=0 I1Cent= 0 IOpClX= 0 NMat=1 NMatS=1 NMatT=0.
 ***** Axes restored to original set *****
 -------------------------------------------------------------------
 Center     Atomic                   Forces (Hartrees/Bohr)
 Number     Number              X              Y              Z
 -------------------------------------------------------------------
      1        6          -0.000214216    0.000233598   -0.000137656
      2        1           0.000037142   -0.000051209    0.000054626
      3        1           0.000037381   -0.000051570    0.000017060
      4        1           0.000079067   -0.000090884    0.000053319
      5       14          -0.000242720   -0.000161214    0.000126324
      6        1           0.000098345    0.000064822    0.000010095
      7        1           0.000112909    0.000016617   -0.000063034
      8        6           0.000005861   -0.000197850   -0.000075841
      9        1          -0.000228314   -0.000075228    0.000182785
     10        6           0.000578906    0.000496734   -0.000416394
     11        1          -0.000168240   -0.000044712    0.000144833
     12        1          -0.000096121   -0.000139103    0.000103882
 -------------------------------------------------------------------
 Cartesian Forces:  Max     0.000578906 RMS     0.000187230

 GradGradGradGradGradGradGradGradGradGradGradGradGradGradGradGradGradGrad
 Berny optimization.
 Using GEDIIS/GDIIS optimizer.
 FormGI is forming the generalized inverse of G from B-inverse, IUseBI=4.
 Internal  Forces:  Max     0.000470902 RMS     0.000129399
 Search for a local minimum.
 Step number   4 out of a maximum of   58 on scan point     1 out of    19
 All quantities printed in internal units (Hartrees-Bohrs-Radians)
 Mixed Optimization -- En-DIIS/RFO-DIIS
 Swapping is turned off.
 Update second derivatives using D2CorX and points    1    2    3    4
 DE= -1.78D-05 DEPred=-1.59D-05 R= 1.12D+00
 TightC=F SS=  1.41D+00  RLast= 1.80D-02 DXNew= 8.4853D-01 5.3987D-02
 Trust test= 1.12D+00 RLast= 1.80D-02 DXMaxT set to 5.05D-01
 ITU=  1  1  1  0
     Eigenvalues ---    0.00239   0.00867   0.02682   0.02803   0.03107
     Eigenvalues ---    0.05339   0.05418   0.05532   0.07899   0.11542
     Eigenvalues ---    0.11734   0.15468   0.16000   0.16000   0.16003
     Eigenvalues ---    0.16254   0.17290   0.17644   0.18259   0.18501
     Eigenvalues ---    0.19200   0.21907   0.37058   0.37200   0.37230
     Eigenvalues ---    0.37230   0.37232   0.37986   0.677761000.00000
     Eigenvalues --- 1000.000001000.000001000.000001000.000001000.00000
     Eigenvalues --- 1000.000001000.000001000.000001000.000001000.00000
     Eigenvalues --- 1000.000001000.000001000.000001000.000001000.00000
     Eigenvalues --- 1000.000001000.000001000.00000
 En-DIIS/RFO-DIIS IScMMF=        0 using points:     4    3
 RFO step:  Lambda=-1.97227255D-06.
 DidBck=F Rises=F RFO-DIIS coefs:    1.13722   -0.13722
 Iteration  1 RMS(Cart)=  0.00357894 RMS(Int)=  0.00000585
 Iteration  2 RMS(Cart)=  0.00000711 RMS(Int)=  0.00000157
 Iteration  3 RMS(Cart)=  0.00000000 RMS(Int)=  0.00000157
 Iteration  1 RMS(Cart)=  0.00000053 RMS(Int)=  0.00000038
 Variable       Old X    -DE/DX   Delta X   Delta X   Delta X     New X
                                 (Linear)    (Quad)   (Total)
    R1        2.04893  -0.00004  -0.00010  -0.00005  -0.00015   2.04878
    R2        2.04889  -0.00002  -0.00012   0.00000  -0.00012   2.04877
    R3        2.04926  -0.00008  -0.00010  -0.00015  -0.00025   2.04901
    R4        3.61521   0.00006  -0.00019   0.00016  -0.00004   3.61518
    R5        2.83097  -0.00002  -0.00026   0.00000  -0.00026   2.83071
    R6        2.83095  -0.00002  -0.00032   0.00000  -0.00032   2.83063
    R7        3.59442   0.00009   0.00014   0.00034   0.00048   3.59489
    R8        2.03832   0.00004   0.00000   0.00017   0.00016   2.03849
    R9        2.50929   0.00047  -0.00040   0.00074   0.00034   2.50962
   R10        2.03182  -0.00004   0.00007  -0.00006   0.00001   2.03183
   R11        2.03309  -0.00009  -0.00003  -0.00023  -0.00027   2.03283
    A1        1.89068   0.00006  -0.00026   0.00025  -0.00001   1.89067
    A2        1.88419   0.00010  -0.00006   0.00055   0.00049   1.88468
    A3        1.93962  -0.00006   0.00021  -0.00031  -0.00010   1.93953
    A4        1.88420   0.00009  -0.00006   0.00054   0.00049   1.88469
    A5        1.93946  -0.00004   0.00011  -0.00017  -0.00006   1.93940
    A6        1.92381  -0.00012   0.00004  -0.00081  -0.00077   1.92304
    A7        1.91432  -0.00005   0.00021   0.00000   0.00021   1.91453
    A8        1.91429  -0.00003   0.00006   0.00020   0.00025   1.91454
    A9        1.95477   0.00025   0.00076   0.00134   0.00211   1.95687
   A10        1.86336   0.00011  -0.00027   0.00121   0.00094   1.86429
   A11        1.90741  -0.00013  -0.00045  -0.00130  -0.00175   1.90566
   A12        1.90741  -0.00016  -0.00036  -0.00147  -0.00183   1.90559
   A13        2.04045  -0.00041  -0.00089  -0.00297  -0.00386   2.03659
   A14        2.17868   0.00025   0.00083   0.00174   0.00257   2.18125
   A15        2.06405   0.00015   0.00005   0.00124   0.00129   2.06534
   A16        2.13926  -0.00015  -0.00029  -0.00094  -0.00123   2.13803
   A17        2.13201  -0.00011   0.00013  -0.00056  -0.00043   2.13158
   A18        2.01191   0.00025   0.00016   0.00150   0.00166   2.01357
    D1       -3.10899  -0.00004   0.00006  -0.00059  -0.00053  -3.10952
    D2       -1.06779   0.00005  -0.00012   0.00099   0.00087  -1.06691
    D3        1.05320   0.00000  -0.00002   0.00016   0.00014   1.05334
    D4        1.06736  -0.00004   0.00017  -0.00059  -0.00042   1.06695
    D5        3.10857   0.00005  -0.00001   0.00100   0.00099   3.10956
    D6       -1.05364   0.00000   0.00009   0.00017   0.00025  -1.05338
    D7       -1.02077  -0.00004   0.00014  -0.00063  -0.00048  -1.02125
    D8        1.02043   0.00005  -0.00003   0.00096   0.00092   1.02136
    D9        3.14142  -0.00001   0.00007   0.00012   0.00019  -3.14158
   D10       -3.13928  -0.00003   0.00068  -0.00468  -0.00400   3.13991
   D11        0.00000   0.00003   0.00000   0.00000   0.00000   0.00000
   D12        1.01894  -0.00004   0.00022  -0.00467  -0.00445   1.01449
   D13       -2.12497   0.00001  -0.00046   0.00001  -0.00044  -2.12542
   D14       -1.01434  -0.00001   0.00101  -0.00456  -0.00355  -1.01790
   D15        2.12493   0.00004   0.00033   0.00012   0.00045   2.12538
   D16       -0.00044   0.00006  -0.00014   0.00109   0.00094   0.00050
   D17       -3.14037  -0.00005   0.00021  -0.00328  -0.00307   3.13975
   D18        3.13881   0.00012  -0.00082   0.00582   0.00500  -3.13938
   D19       -0.00112   0.00001  -0.00047   0.00146   0.00099  -0.00013
         Item               Value     Threshold  Converged?
 Maximum Force            0.000471     0.000450     NO 
 RMS     Force            0.000131     0.000300     YES
 Maximum Displacement     0.009659     0.001800     NO 
 RMS     Displacement     0.003577     0.001200     NO 
 Predicted change in Energy=-3.015112D-06
 GradGradGradGradGradGradGradGradGradGradGradGradGradGradGradGradGradGrad

                          Input orientation:                          
 ---------------------------------------------------------------------
 Center     Atomic      Atomic             Coordinates (Angstroms)
 Number     Number       Type             X           Y           Z
 ---------------------------------------------------------------------
      1          6           0       -3.237748    3.906273    0.676860
      2          1           0       -2.922392    3.943904   -0.359748
      3          1           0       -2.920511    4.821852    1.163161
      4          1           0       -4.321415    3.875052    0.696193
      5         14           0       -2.517329    2.370584    1.561443
      6          1           0       -3.008329    2.326146    2.975933
      7          1           0       -3.010747    1.124689    0.892110
      8          6           0       -0.614996    2.369618    1.559690
      9          1           0       -0.130490    1.535234    2.042074
     10          6           0        0.146268    3.311928    1.015440
     11          1           0       -0.265618    4.172771    0.520109
     12          1           0        1.220667    3.265948    1.042583
 ---------------------------------------------------------------------
                    Distance matrix (angstroms):
                    1          2          3          4          5
     1  C    0.000000
     2  H    1.084169   0.000000
     3  H    1.084165   1.757854   0.000000
     4  H    1.084289   1.754143   1.754144   0.000000
     5  Si   1.913069   2.516026   2.515930   2.503359   0.000000
     6  H    2.799138   3.708274   3.085839   3.052953   1.497945
     7  H    2.799120   3.085924   3.708184   3.052987   1.497905
     8  C    3.165364   3.389203   3.389113   4.092615   1.902335
     9  H    4.140131   4.400586   4.399837   4.984977   2.574066
    10  C    3.452455   3.421580   3.421524   4.514334   2.877325
    11  H    2.988168   2.808021   2.807718   4.070520   3.066343
    12  H    4.518986   4.426183   4.425464   5.586203   3.878596
                    6          7          8          9         10
     6  H    0.000000
     7  H    2.405374   0.000000
     8  C    2.781309   2.781211   0.000000
     9  H    3.127234   3.128393   1.078720   0.000000
    10  C    3.842757   3.842651   1.328035   2.070559   0.000000
    11  H    4.118685   4.118850   2.110487   3.048153   1.075199
    12  H    4.743994   4.744734   2.107241   2.412464   1.075725
                   11         12
    11  H    0.000000
    12  H    1.817787   0.000000
 Stoichiometry    C3H8Si
 Framework group  C1[X(C3H8Si)]
 Deg. of freedom    30
 Full point group                 C1      NOp   1
 Largest Abelian subgroup         C1      NOp   1
 Largest concise Abelian subgroup C1      NOp   1
                         Standard orientation:                         
 ---------------------------------------------------------------------
 Center     Atomic      Atomic             Coordinates (Angstroms)
 Number     Number       Type             X           Y           Z
 ---------------------------------------------------------------------
      1          6           0        1.540493    0.998061   -0.000091
      2          1           0        1.289084    1.580910    0.878830
      3          1           0        1.288836    1.580778   -0.879024
      4          1           0        2.612920    0.838122   -0.000227
      5         14           0        0.622836   -0.680552    0.000028
      6          1           0        1.026867   -1.476839   -1.202687
      7          1           0        1.027037   -1.476765    1.202687
      8          6           0       -1.267106   -0.463761    0.000245
      9          1           0       -1.858268   -1.366069   -0.001306
     10          6           0       -1.899423    0.704080    0.000310
     11          1           0       -1.377057    1.643860   -0.000209
     12          1           0       -2.972908    0.773454   -0.001244
 ---------------------------------------------------------------------
 Rotational constants (GHZ):      9.5024931      3.7992442      2.8510698
 Standard basis: 6-31G (6D, 7F)
 There are    56 symmetry adapted cartesian basis functions of A   symmetry.
 There are    56 symmetry adapted basis functions of A   symmetry.
    56 basis functions,   144 primitive gaussians,    56 cartesian basis functions
    20 alpha electrons       20 beta electrons
       nuclear repulsion energy       154.7884725907 Hartrees.
 NAtoms=   12 NActive=   12 NUniq=   12 SFac= 1.00D+00 NAtFMM=   60 NAOKFM=F Big=F
 Integral buffers will be    131072 words long.
 Raffenetti 1 integral format.
 Two-electron integral symmetry is turned on.
 One-electron integrals computed using PRISM.
 NBasis=    56 RedAO= T EigKep=  8.17D-03  NBF=    56
 NBsUse=    56 1.00D-06 EigRej= -1.00D+00 NBFU=    56
 Initial guess from the checkpoint file:  "EtOCSVinyl_RHF6-31G_scan_0_180.chk"
 B after Tr=     0.000000    0.000000    0.000000
         Rot=    1.000000    0.000003   -0.000014    0.000281 Ang=   0.03 deg.
 Keep R1 ints in memory in canonical form, NReq=2143215.
 Requested convergence on RMS density matrix=1.00D-08 within 128 cycles.
 Requested convergence on MAX density matrix=1.00D-06.
 Requested convergence on             energy=1.00D-06.
 No special actions if energy rises.
 SCF Done:  E(RHF) =  -407.070670458     A.U. after    9 cycles
            NFock=  9  Conv=0.38D-08     -V/T= 1.9994
 Calling FoFJK, ICntrl=      2127 FMM=F ISym2X=0 I1Cent= 0 IOpClX= 0 NMat=1 NMatS=1 NMatT=0.
 ***** Axes restored to original set *****
 -------------------------------------------------------------------
 Center     Atomic                   Forces (Hartrees/Bohr)
 Number     Number              X              Y              Z
 -------------------------------------------------------------------
      1        6          -0.000058610    0.000134533   -0.000073822
      2        1           0.000018238   -0.000043084   -0.000003279
      3        1           0.000015030   -0.000009825    0.000036269
      4        1          -0.000010175   -0.000025941    0.000015145
      5       14           0.000019495   -0.000113958    0.000018217
      6        1           0.000019763    0.000046267    0.000031373
      7        1          -0.000004158   -0.000014463   -0.000056559
      8        6          -0.000054458   -0.000045583    0.000135814
      9        1          -0.000017414   -0.000061674   -0.000049768
     10        6           0.000109567    0.000305586    0.000034323
     11        1          -0.000020193   -0.000092326   -0.000056492
     12        1          -0.000017084   -0.000079532   -0.000031223
 -------------------------------------------------------------------
 Cartesian Forces:  Max     0.000305586 RMS     0.000076161

 GradGradGradGradGradGradGradGradGradGradGradGradGradGradGradGradGradGrad
 Berny optimization.
 Using GEDIIS/GDIIS optimizer.
 FormGI is forming the generalized inverse of G from B-inverse, IUseBI=4.
 Internal  Forces:  Max     0.000158206 RMS     0.000041637
 Search for a local minimum.
 Step number   5 out of a maximum of   58 on scan point     1 out of    19
 All quantities printed in internal units (Hartrees-Bohrs-Radians)
 Mixed Optimization -- En-DIIS/RFO-DIIS
 Swapping is turned off.
 Update second derivatives using D2CorX and points    1    2    3    4    5
 DE= -2.76D-06 DEPred=-3.02D-06 R= 9.14D-01
 TightC=F SS=  1.41D+00  RLast= 1.14D-02 DXNew= 8.4853D-01 3.4178D-02
 Trust test= 9.14D-01 RLast= 1.14D-02 DXMaxT set to 5.05D-01
 ITU=  1  1  1  1  0
     Eigenvalues ---    0.00239   0.00944   0.02717   0.03031   0.03320
     Eigenvalues ---    0.05184   0.05427   0.05537   0.07607   0.10706
     Eigenvalues ---    0.11791   0.13822   0.16000   0.16001   0.16011
     Eigenvalues ---    0.16254   0.17274   0.17709   0.18234   0.18289
     Eigenvalues ---    0.19970   0.21850   0.37003   0.37181   0.37230
     Eigenvalues ---    0.37232   0.37239   0.38923   0.669361000.00000
     Eigenvalues --- 1000.000001000.000001000.000001000.000001000.00000
     Eigenvalues --- 1000.000001000.000001000.000001000.000001000.00000
     Eigenvalues --- 1000.000001000.000001000.000001000.000001000.00000
     Eigenvalues --- 1000.000001000.000001000.00000
 En-DIIS/RFO-DIIS IScMMF=        0 using points:     5    4    3
 RFO step:  Lambda=-2.67232031D-07.
 DidBck=F Rises=F RFO-DIIS coefs:    0.88659    0.17242   -0.05901
 Iteration  1 RMS(Cart)=  0.00078334 RMS(Int)=  0.00000110
 Iteration  2 RMS(Cart)=  0.00000117 RMS(Int)=  0.00000060
 Iteration  3 RMS(Cart)=  0.00000000 RMS(Int)=  0.00000060
 Iteration  1 RMS(Cart)=  0.00000021 RMS(Int)=  0.00000015
 Variable       Old X    -DE/DX   Delta X   Delta X   Delta X     New X
                                 (Linear)    (Quad)   (Total)
    R1        2.04878   0.00001  -0.00003   0.00001  -0.00002   2.04876
    R2        2.04877   0.00001  -0.00004   0.00004   0.00000   2.04877
    R3        2.04901   0.00001  -0.00002  -0.00001  -0.00003   2.04898
    R4        3.61518   0.00007  -0.00008   0.00045   0.00037   3.61555
    R5        2.83071   0.00002  -0.00008   0.00012   0.00004   2.83075
    R6        2.83063   0.00004  -0.00010   0.00021   0.00011   2.83074
    R7        3.59489   0.00000   0.00000   0.00011   0.00012   3.59501
    R8        2.03849   0.00002  -0.00002   0.00008   0.00005   2.03854
    R9        2.50962   0.00016  -0.00021   0.00055   0.00034   2.50996
   R10        2.03183  -0.00004   0.00003  -0.00013  -0.00010   2.03173
   R11        2.03283  -0.00001   0.00002  -0.00010  -0.00008   2.03275
    A1        1.89067   0.00005  -0.00011   0.00042   0.00031   1.89098
    A2        1.88468   0.00004  -0.00008   0.00034   0.00026   1.88494
    A3        1.93953  -0.00005   0.00010  -0.00040  -0.00030   1.93923
    A4        1.88469   0.00003  -0.00008   0.00033   0.00025   1.88494
    A5        1.93940  -0.00003   0.00005  -0.00026  -0.00020   1.93920
    A6        1.92304  -0.00003   0.00010  -0.00039  -0.00028   1.92276
    A7        1.91453  -0.00002   0.00007  -0.00019  -0.00013   1.91440
    A8        1.91454  -0.00003   0.00000  -0.00015  -0.00015   1.91439
    A9        1.95687   0.00002   0.00009   0.00016   0.00025   1.95712
   A10        1.86429   0.00004  -0.00022   0.00098   0.00076   1.86505
   A11        1.90566  -0.00002   0.00000  -0.00048  -0.00047   1.90518
   A12        1.90559   0.00000   0.00005  -0.00028  -0.00023   1.90536
   A13        2.03659  -0.00003   0.00006  -0.00074  -0.00068   2.03590
   A14        2.18125   0.00000   0.00007   0.00026   0.00033   2.18158
   A15        2.06534   0.00003  -0.00012   0.00048   0.00036   2.06570
   A16        2.13803  -0.00002   0.00001  -0.00030  -0.00029   2.13774
   A17        2.13158  -0.00005   0.00011  -0.00045  -0.00035   2.13123
   A18        2.01357   0.00006  -0.00012   0.00076   0.00064   2.01421
    D1       -3.10952  -0.00001   0.00008  -0.00049  -0.00041  -3.10993
[...]
           A10        107.43876 107.73567 108.03231 108.28557 108.45447
           A11        110.27237 110.15482 109.70780 109.18151 108.62703
           A12        108.02729 108.14900 108.44786 108.83192 109.20603
           A13        116.79425 116.81427 117.02685 117.14929 117.32896
           A14        124.96685 124.94344 124.72249 124.55373 124.32480
           A15        118.23546 118.24155 118.23808 118.26680 118.31026
           A16        122.59917 122.58136 122.53133 122.45539 122.37451
           A17        122.14934 122.15952 122.17786 122.19212 122.20945
           A18        115.25136 115.25896 115.28970 115.35024 115.41345
           D1        -177.53062-177.84723-178.70641-179.54395 179.85296
           D2         -60.05791 -60.12135 -60.72969 -61.30937 -61.73346
           D3          59.81758  59.94032  59.82660  59.73515  59.72661
           D4          62.43217  62.25140  61.40273  60.55499  59.87482
           D5         179.90488 179.97728 179.37944 178.78957 178.28840
           D6         -60.21963 -59.96104 -60.06427 -60.16590 -60.25153
           D7         -57.57840 -57.76359 -58.52798 -59.32314 -59.96660
           D8          59.89432  59.96229  59.44873  58.91144  58.44698
           D9         179.76980 180.02396-179.99497 179.95597 179.90705
           D10       -130.68887-119.68094-108.68308 -97.96111 -87.77538
           D11         49.99990  59.99987  70.00009  80.00008  90.00015
           D12        107.16670 118.73443 130.40246 141.63057 152.03457
           D13        -72.14453 -61.58476 -50.91437 -40.40824 -30.18990
           D14         -9.97397   1.23123  12.61988  23.62049  33.92527
           D15        170.71479-179.08797-168.69695-158.41832-148.29920
           D16         -0.62599   0.54783   1.65525   2.46901   2.67258
           D17        179.50786-179.60388-178.74516-178.10252-177.94112
           D18       -179.92814-179.77554-179.67624-179.59080-179.57209
           D19          0.20572   0.07276  -0.07665  -0.16234  -0.18580
                          11        12        13        14        15
     Eigenvalues --  -407.07062-407.07104-407.07119-407.07105-407.07064
           R1           1.08446   1.08452   1.08460   1.08468   1.08475
           R2           1.08410   1.08402   1.08404   1.08409   1.08417
           R3           1.08443   1.08441   1.08443   1.08429   1.08425
           R4           1.91619   1.91590   1.91530   1.91504   1.91455
           R5           1.49680   1.49659   1.49631   1.49619   1.49616
           R6           1.49701   1.49763   1.49817   1.49874   1.49900
           R7           1.90203   1.90074   1.90020   1.90055   1.90149
           R8           1.07883   1.07894   1.07904   1.07908   1.07912
           R9           1.32854   1.32858   1.32854   1.32847   1.32832
           R10          1.07556   1.07540   1.07534   1.07536   1.07546
           R11          1.07573   1.07574   1.07573   1.07572   1.07570
           A1         108.11891 108.14088 108.14411 108.15122 108.15231
           A2         108.14076 108.10023 108.05591 108.02450 107.99539
           A3         111.12787 111.05079 110.92033 110.76526 110.65055
           A4         108.31991 108.31312 108.28386 108.25886 108.21899
           A5         110.41514 110.55655 110.72647 110.87879 111.00452
           A6         110.61954 110.57968 110.60737 110.65681 110.71013
           A7         109.10430 109.56320 110.07873 110.56575 110.91039
           A8         109.43528 109.10768 108.75510 108.46986 108.25449
           A9         112.03636 112.02691 111.90899 111.75349 111.46984
           A10        108.47012 108.35488 108.21542 107.94768 107.70189
           A11        108.23904 108.07876 108.10794 108.31667 108.68954
           A12        109.48215 109.63651 109.70545 109.71421 109.73847
           A13        117.41630 117.44244 117.40752 117.28427 117.13117
           A14        124.20400 124.16360 124.18097 124.29753 124.45511
           A15        118.35389 118.38589 118.41151 118.41097 118.39200
           A16        122.30390 122.26611 122.25858 122.26158 122.29433
           A17        122.21910 122.21627 122.21736 122.22107 122.21816
           A18        115.47511 115.51684 115.52399 115.51725 115.48683
           D1         179.47952 179.49723 179.66379 179.99091-179.65099
           D2         -61.98200 -62.02695 -61.93792 -61.82438 -61.69635
           D3          59.64311  59.56095  59.41944  59.25312  59.09190
           D4          59.50773  59.45479  59.59068  59.91061  60.26040
           D5         178.04622 177.93061 177.98897 178.09532 178.21504
           D6         -60.32868 -60.48149 -60.65367 -60.82718 -60.99671
           D7         -60.38571 -60.49609 -60.45232 -60.23335 -59.95162
           D8          58.15277  57.97972  57.94597  57.95137  58.00302
           D9         179.77788 179.56763 179.30333 179.02886 178.79127
           D10        -78.11709 -68.94729 -59.98439 -50.99650 -41.72728
           D11        100.00005 110.00013 120.00009 130.00005 139.99992
           D12        161.54186 170.25292 178.62753-173.03553-164.26906
           D13        -20.34101 -10.79966  -1.38799   7.96103  17.45813
           D14         43.48111  52.33642  60.82302  69.35602  78.18851
           D15       -138.40175-128.71616-119.19249-109.64742-100.08430
           D16          2.27461   1.33171   0.15706  -1.00602  -1.86118
           D17       -178.24679-179.00475-179.94075 179.11520 178.45321
           D18       -179.62463-179.73009-179.85860-179.99906 179.88614
           D19         -0.14603  -0.06656   0.04359   0.12216   0.20053
                          16        17        18        19
     Eigenvalues --  -407.07005-407.06941-407.06892-407.06874
           R1           1.08474   1.08475   1.08467   1.08460
           R2           1.08422   1.08434   1.08445   1.08459
           R3           1.08415   1.08409   1.08404   1.08404
           R4           1.91424   1.91387   1.91378   1.91357
           R5           1.49625   1.49656   1.49710   1.49779
           R6           1.49918   1.49893   1.49846   1.49772
           R7           1.90317   1.90509   1.90672   1.90742
           R8           1.07910   1.07908   1.07905   1.07902
           R9           1.32811   1.32792   1.32776   1.32770
           R10          1.07561   1.07574   1.07586   1.07588
           R11          1.07570   1.07570   1.07571   1.07571
           A1         108.16833 108.16976 108.18752 108.18542
           A2         107.98960 107.98695 108.01466 108.04671
           A3         110.57146 110.59424 110.67897 110.85025
           A4         108.18745 108.13824 108.09753 108.04861
           A5         111.09652 111.08816 110.98812 110.82855
           A6         110.71711 110.75108 110.76244 110.76914
           A7         110.98400 110.77290 110.25711 109.56660
           A8         108.23060 108.42708 108.91352 109.57110
           A9         111.11115 110.67726 110.36053 110.18066
           A10        107.43521 107.22517 107.07050 107.02212
           A11        109.14819 109.63935 110.01828 110.22073
           A12        109.85453 110.02853 110.15837 110.22314
           A13        116.93770 116.75319 116.55974 116.50214
           A14        124.67940 124.92201 125.17813 125.26053
           A15        118.34843 118.29762 118.25226 118.23733
           A16        122.35219 122.41533 122.47577 122.49821
           A17        122.20834 122.19176 122.17655 122.16713
           A18        115.43835 115.39188 115.34731 115.33466
           D1        -179.16085-178.80146-178.55246-178.49997
           D2         -61.50247 -61.40039 -61.34494 -61.36478
           D3          59.19316  59.37007  59.70058  60.07058
           D4          60.72229  61.07027  61.30663  61.35373
           D5         178.38067 178.47133 178.51414 178.48893
           D6         -60.92370 -60.75821 -60.44033 -60.07572
           D7         -59.51555 -59.12267 -58.77641 -58.56718
           D8          58.14283  58.27840  58.43111  58.56801
           D9         178.83845 179.04886 179.47663 180.00337
           D10        -32.17769 -21.93516 -11.16780  -0.02166
           D11        149.99996 159.99987 169.99991 179.99991
           D12       -154.88948-144.42717-133.05590-121.06078
           D13         27.28818  37.50786  48.11181  58.96079
           D14         87.55539  97.87912 109.13300 121.02465
           D15        -90.26695 -80.18585 -69.69929 -58.95379
           D16         -2.36237  -2.14589  -1.28277  -0.03780
           D17        178.04064 178.23882 178.94936 179.95528
           D18        179.84357 179.81652 179.90296 179.98411
           D19          0.24658   0.20124   0.13509  -0.02281
                          Input orientation:                          
 ---------------------------------------------------------------------
 Center     Atomic      Atomic             Coordinates (Angstroms)
 Number     Number       Type             X           Y           Z
 ---------------------------------------------------------------------
      1          6           0       -3.613395    3.444351    0.263370
      2          1           0       -3.527247    2.746579   -0.562494
      3          1           0       -3.410872    4.441130   -0.113140
      4          1           0       -4.637694    3.420773    0.617482
      5         14           0       -2.398550    2.988407    1.669789
      6          1           0       -2.567003    3.946739    2.808468
      7          1           0       -2.726192    1.623842    2.193042
      8          6           0       -0.602617    3.035147    1.028945
      9          1           0       -0.468258    3.300419   -0.008290
     10          6           0        0.477166    2.768961    1.754213
     11          1           0        0.422720    2.497796    2.793940
     12          1           0        1.469303    2.809855    1.340524
 ---------------------------------------------------------------------
                    Distance matrix (angstroms):
                    1          2          3          4          5
     1  C    0.000000
     2  H    1.084600   0.000000
     3  H    1.084594   1.756976   0.000000
     4  H    1.084039   1.754985   1.755002   0.000000
     5  Si   1.913570   2.513072   2.512775   2.511584   0.000000
     6  H    2.797294   3.704840   3.080963   3.060199   1.497787
     7  H    2.797322   3.081429   3.704642   3.060259   1.497725
     8  C    3.133423   3.342067   3.341773   4.074292   1.907417
     9  H    3.160127   3.157736   3.157720   4.217852   2.576690
    10  C    4.405843   4.626333   4.626013   5.280039   2.885312
    11  H    4.856952   5.189392   5.188844   5.585396   3.076359
    12  H    5.234183   5.347055   5.346991   6.179921   3.885948
                    6          7          8          9         10
     6  H    0.000000
     7  H    2.408307   0.000000
     8  C    2.802948   2.802940   0.000000
     9  H    3.571637   3.571419   1.079017   0.000000
    10  C    3.430100   3.430068   1.327705   2.069466   0.000000
    11  H    3.322363   3.322728   2.110751   3.048039   1.075885
    12  H    4.442875   4.442476   2.107295   2.411244   1.075708
                   11         12
    11  H    0.000000
    12  H    1.818003   0.000000
 Stoichiometry    C3H8Si
 Framework group  C1[X(C3H8Si)]
 Deg. of freedom    30
 Full point group                 C1      NOp   1
 Largest Abelian subgroup         C1      NOp   1
 Largest concise Abelian subgroup C1      NOp   1
                         Standard orientation:                         
 ---------------------------------------------------------------------
 Center     Atomic      Atomic             Coordinates (Angstroms)
 Number     Number       Type             X           Y           Z
 ---------------------------------------------------------------------
      1          6           0        2.051947    0.538565   -0.000041
      2          1           0        2.079692    1.174279    0.878285
      3          1           0        2.079405    1.173832   -0.878691
      4          1           0        2.946674   -0.073484   -0.000011
      5         14           0        0.481695   -0.555079    0.000074
      6          1           0        0.490686   -1.445796   -1.204047
      7          1           0        0.490621   -1.445606    1.204259
      8          6           0       -1.081475    0.537962   -0.000084
      9          1           0       -0.922715    1.605236    0.000149
     10          6           0       -2.330872    0.088732   -0.000047
     11          1           0       -2.567800   -0.960741   -0.000520
     12          1           0       -3.177889    0.751838    0.000569
 ---------------------------------------------------------------------
 Rotational constants (GHZ):     16.1936825      2.8656812      2.5446108

 **********************************************************************

            Population analysis using the SCF density.

 **********************************************************************

 Orbital symmetries:
       Occupied  (A) (A) (A) (A) (A) (A) (A) (A) (A) (A) (A) (A)
                 (A) (A) (A) (A) (A) (A) (A) (A)
       Virtual   (A) (A) (A) (A) (A) (A) (A) (A) (A) (A) (A) (A)
                 (A) (A) (A) (A) (A) (A) (A) (A) (A) (A) (A) (A)
                 (A) (A) (A) (A) (A) (A) (A) (A) (A) (A) (A) (A)
 The electronic state is 1-A.
 Alpha  occ. eigenvalues --  -68.77801 -11.23783 -11.22605 -11.20942  -6.14160
 Alpha  occ. eigenvalues --   -4.24703  -4.24675  -4.24610  -1.03843  -0.94947
 Alpha  occ. eigenvalues --   -0.79012  -0.69311  -0.62007  -0.57572  -0.56266
 Alpha  occ. eigenvalues --   -0.54446  -0.46574  -0.44268  -0.43059  -0.37066
 Alpha virt. eigenvalues --    0.14268   0.16825   0.19356   0.24852   0.27270
 Alpha virt. eigenvalues --    0.27619   0.29526   0.29602   0.30390   0.32605
 Alpha virt. eigenvalues --    0.38949   0.41383   0.41416   0.46285   0.53360
 Alpha virt. eigenvalues --    0.55570   0.68199   0.77694   0.83178   0.86124
 Alpha virt. eigenvalues --    0.89821   0.94517   0.96522   0.99280   1.15175
 Alpha virt. eigenvalues --    1.18851   1.20383   1.20457   1.23535   1.25710
 Alpha virt. eigenvalues --    1.26847   1.29343   1.30627   1.35547   1.48481
 Alpha virt. eigenvalues --    1.53391
          Condensed to atoms (all electrons):
               1          2          3          4          5          6
     1  C    5.524139   0.368864   0.368849   0.371340   0.315129  -0.027808
     2  H    0.368864   0.516801  -0.023854  -0.023140  -0.017958   0.000832
     3  H    0.368849  -0.023854   0.516838  -0.023138  -0.017976  -0.000892
     4  H    0.371340  -0.023140  -0.023138   0.512054  -0.017617  -0.000215
     5  Si   0.315129  -0.017958  -0.017976  -0.017617  11.655753   0.371403
     6  H   -0.027808   0.000832  -0.000892  -0.000215   0.371403   0.922558
     7  H   -0.027816  -0.000891   0.000832  -0.000214   0.371384  -0.031176
     8  C   -0.032468   0.000306   0.000307   0.000881   0.291112  -0.031078
     9  H    0.000395  -0.000036  -0.000036   0.000035  -0.021200   0.000200
    10  C   -0.000066   0.000038   0.000038  -0.000012  -0.012255   0.000050
    11  H   -0.000004  -0.000001  -0.000001   0.000001  -0.001152   0.000092
    12  H   -0.000029   0.000000   0.000000   0.000000   0.002367   0.000000
               7          8          9         10         11         12
     1  C   -0.027816  -0.032468   0.000395  -0.000066  -0.000004  -0.000029
     2  H   -0.000891   0.000306  -0.000036   0.000038  -0.000001   0.000000
     3  H    0.000832   0.000307  -0.000036   0.000038  -0.000001   0.000000
     4  H   -0.000214   0.000881   0.000035  -0.000012   0.000001   0.000000
     5  Si   0.371384   0.291112  -0.021200  -0.012255  -0.001152   0.002367
     6  H   -0.031176  -0.031078   0.000200   0.000050   0.000092   0.000000
     7  H    0.922581  -0.031067   0.000199   0.000042   0.000091   0.000000
     8  C   -0.031067   5.485972   0.389376   0.566467  -0.046607  -0.044520
     9  H    0.000199   0.389376   0.494927  -0.033335   0.003169  -0.005432
    10  C    0.000042   0.566467  -0.033335   4.983827   0.398830   0.397764
    11  H    0.000091  -0.046607   0.003169   0.398830   0.513138  -0.029449
    12  H    0.000000  -0.044520  -0.005432   0.397764  -0.029449   0.513512
 Mulliken charges:
               1
     1  C   -0.860525
     2  H    0.179039
     3  H    0.179033
     4  H    0.180026
     5  Si   1.081010
     6  H   -0.203965
     7  H   -0.203966
     8  C   -0.548681
     9  H    0.171737
    10  C   -0.301388
    11  H    0.161894
    12  H    0.165786
 Sum of Mulliken charges =   0.00000
 Mulliken charges with hydrogens summed into heavy atoms:
               1
     1  C   -0.322427
     5  Si   0.673078
     8  C   -0.376943
    10  C    0.026292
 Electronic spatial extent (au):  <R**2>=            530.7624
 Charge=              0.0000 electrons
 Dipole moment (field-independent basis, Debye):
    X=             -0.1289    Y=              0.6270    Z=              0.0006  Tot=              0.6401
 Quadrupole moment (field-independent basis, Debye-Ang):
   XX=            -32.5949   YY=            -34.8381   ZZ=            -37.5466
   XY=              0.2187   XZ=             -0.0007   YZ=              0.0011
 Traceless Quadrupole moment (field-independent basis, Debye-Ang):
   XX=              2.3983   YY=              0.1551   ZZ=             -2.5534
   XY=              0.2187   XZ=             -0.0007   YZ=              0.0011
 Octapole moment (field-independent basis, Debye-Ang**2):
  XXX=             -9.6426  YYY=              6.6943  ZZZ=              0.0001  XYY=             -3.0872
  XXY=             -1.3008  XXZ=              0.0042  XZZ=              2.6392  YZZ=              4.1755
  YYZ=              0.0017  XYZ=             -0.0025
 Hexadecapole moment (field-independent basis, Debye-Ang**3):
 XXXX=           -531.9858 YYYY=           -142.1632 ZZZZ=            -73.3601 XXXY=             -9.7573
 XXXZ=             -0.0078 YYYX=              2.1402 YYYZ=              0.0017 ZZZX=             -0.0020
 ZZZY=              0.0008 XXYY=           -112.3179 XXZZ=           -111.6561 YYZZ=            -39.3255
 XXYZ=              0.0094 YYXZ=              0.0014 ZZXY=              4.4573
 N-N= 1.527787722131D+02 E-N=-1.269362466417D+03  KE= 4.073004205056D+02
 1\1\GINC-CORN03\Scan\RHF\6-31G\C3H8Si1\JOEBURG\07-Sep-2016\0\\# opt=mo
 dredundant hf/6-31g geom=connectivity\\Title Card Required\\0,1\C,-3.6
 133951812,3.4443506346,0.2633698651\H,-3.5272473443,2.7465792313,-0.56
 24943641\H,-3.4108724719,4.4411302596,-0.1131401463\H,-4.6376941638,3.
 4207725856,0.6174824326\Si,-2.3985502264,2.988407347,1.6697893464\H,-2
 .5670034738,3.9467394792,2.8084681504\H,-2.7261921421,1.6238424695,2.1
 930416258\C,-0.602617215,3.0351472562,1.0289450582\H,-0.4682582558,3.3
 00418776,-0.0082901298\C,0.4771658053,2.7689607233,1.7542128142\H,0.42
 27202682,2.4977961211,2.7939401837\H,1.4693034107,2.8098549668,1.34052
 37937\\Version=EM64L-G09RevD.01\State=1-A\HF=-407.0706708,-407.0705453
 ,-407.0702006,-407.0697261,-407.069247,-407.0688938,-407.0687803,-407.
 0689692,-407.0694295,-407.0700361,-407.0706216,-407.0710392,-407.07119
 45,-407.0710535,-407.0706416,-407.0700461,-407.0694131,-407.0689248,-4
 07.0687405\RMSD=4.816e-09,2.622e-09,2.851e-09,5.757e-09,2.713e-09,8.23
 1e-09,5.994e-09,5.439e-09,3.118e-09,4.019e-09,2.943e-09,3.929e-09,5.03
 0e-09,2.923e-09,9.538e-09,3.955e-09,2.242e-09,3.331e-09,2.658e-09\PG=C
 01 [X(C3H8Si1)]\\@


     "IF I COULD JUST GET IT ON PAPER"
 LIFE AND INK, THEY RUN OUT AT THE SAME TIME,
 OR SO SAID MY OLD FRIEND THE SQUID.
     -- JIMMY BUFFETT, 1981
 Job cpu time:       0 days  0 hours  3 minutes 20.1 seconds.
 File lengths (MBytes):  RWF=      5 Int=      0 D2E=      0 Chk=      3 Scr=      1
 Normal termination of Gaussian 09 at Wed Sep  7 11:33:02 2016.
