 Entering Gaussian System, Link 0=g09
 Input=/afs/.ir.stanford.edu/users/j/o/joeburg/Gaussian Input/EtOCSPhenyl_RHF6-31G_CCSiCar_scan_0_180.com
 Output=/afs/.ir.stanford.edu/users/j/o/joeburg/Gaussian Input/EtOCSPhenyl_RHF6-31G_CCSiCar_scan_0_180.log
 Initial command:
 /farmshare/software/non-free/gaussian/D.01/g09D.01/l1.exe "/tmp/Gau-9123.inp" -scrdir="/tmp/"
 Entering Link 1 = /farmshare/software/non-free/gaussian/D.01/g09D.01/l1.exe PID=      9125.
  
 Copyright (c) 1988,1990,1992,1993,1995,1998,2003,2009,2013,
            Gaussian, Inc.  All Rights Reserved.
  
 This is part of the Gaussian(R) 09 program.  It is based on
 the Gaussian(R) 03 system (copyright 2003, Gaussian, Inc.),
 the Gaussian(R) 98 system (copyright 1998, Gaussian, Inc.),
 the Gaussian(R) 94 system (copyright 1995, Gaussian, Inc.),
 the Gaussian 92(TM) system (copyright 1992, Gaussian, Inc.),
 the Gaussian 90(TM) system (copyright 1990, Gaussian, Inc.),
 the Gaussian 88(TM) system (copyright 1988, Gaussian, Inc.),
 the Gaussian 86(TM) system (copyright 1986, Carnegie Mellon
 University), and the Gaussian 82(TM) system (copyright 1983,
 Carnegie Mellon University). Gaussian is a federally registered
 trademark of Gaussian, Inc.
  
 This software contains proprietary and confidential information,
 including trade secrets, belonging to Gaussian, Inc.
  
 This software is provided under written license and may be
 used, copied, transmitted, or stored only in accord with that
 written license.
  
 The following legend is applicable only to US Government
 contracts under FAR:
  
                    RESTRICTED RIGHTS LEGEND
  
 Use, reproduction and disclosure by the US Government is
 subject to restrictions as set forth in subparagraphs (a)
 and (c) of the Commercial Computer Software - Restricted
 Rights clause in FAR 52.227-19.
  
 Gaussian, Inc.
 340 Quinnipiac St., Bldg. 40, Wallingford CT 06492
  
  
 ---------------------------------------------------------------
 Warning -- This program may not be used in any manner that
 competes with the business of Gaussian, Inc. or will provide
 assistance to any competitor of Gaussian, Inc.  The licensee
 of this program is prohibited from giving any competitor of
 Gaussian, Inc. access to this program.  By using this program,
 the user acknowledges that Gaussian, Inc. is engaged in the
 business of creating and licensing software in the field of
 computational chemistry and represents and warrants to the
 licensee that it is not a competitor of Gaussian, Inc. and that
 it will not use this program in any manner prohibited above.
 ---------------------------------------------------------------
  

 Cite this work as:
 Gaussian 09, Revision D.01,
 M. J. Frisch, G. W. Trucks, H. B. Schlegel, G. E. Scuseria, 
 M. A. Robb, J. R. Cheeseman, G. Scalmani, V. Barone, B. Mennucci, 
 G. A. Petersson, H. Nakatsuji, M. Caricato, X. Li, H. P. Hratchian, 
 A. F. Izmaylov, J. Bloino, G. Zheng, J. L. Sonnenberg, M. Hada, 
 M. Ehara, K. Toyota, R. Fukuda, J. Hasegawa, M. Ishida, T. Nakajima, 
 Y. Honda, O. Kitao, H. Nakai, T. Vreven, J. A. Montgomery, Jr., 
 J. E. Peralta, F. Ogliaro, M. Bearpark, J. J. Heyd, E. Brothers, 
 K. N. Kudin, V. N. Staroverov, T. Keith, R. Kobayashi, J. Normand, 
 K. Raghavachari, A. Rendell, J. C. Burant, S. S. Iyengar, J. Tomasi, 
 M. Cossi, N. Rega, J. M. Millam, M. Klene, J. E. Knox, J. B. Cross, 
 V. Bakken, C. Adamo, J. Jaramillo, R. Gomperts, R. E. Stratmann, 
 O. Yazyev, A. J. Austin, R. Cammi, C. Pomelli, J. W. Ochterski, 
 R. L. Martin, K. Morokuma, V. G. Zakrzewski, G. A. Voth, 
 P. Salvador, J. J. Dannenberg, S. Dapprich, A. D. Daniels, 
 O. Farkas, J. B. Foresman, J. V. Ortiz, J. Cioslowski, 
 and D. J. Fox, Gaussian, Inc., Wallingford CT, 2013.
 
 ******************************************
 Gaussian 09:  EM64L-G09RevD.01 24-Apr-2013
                 7-Sep-2016 
 ******************************************
 %chk=EtOCSPhenyl_RHF6-31G_CCSiCar_scan_0_180.chk
 ---------------------------------------------
 # opt=modredundant hf/6-31g geom=connectivity
 ---------------------------------------------
 1/18=120,19=15,38=1,57=2/1,3;
 2/9=110,12=2,17=6,18=5,40=1/2;
 3/5=1,6=6,11=9,16=1,25=1,30=1,71=1/1,2,3;
 4//1;
 5/5=2,38=5/2;
 6/7=2,8=2,9=2,10=2,28=1/1;
 7//1,2,3,16;
 1/18=20,19=15/3(2);
 2/9=110/2;
 99//99;
 2/9=110/2;
 3/5=1,6=6,11=9,16=1,25=1,30=1,71=1/1,2,3;
 4/5=5,16=3,69=1/1;
 5/5=2,38=5/2;
 7//1,2,3,16;
 1/18=20,19=15/3(-5);
 2/9=110/2;
 6/7=2,8=2,9=2,10=2,19=2,28=1/1;
 99/9=1/99;
 -------------------
 Title Card Required
 -------------------
 Symbolic Z-matrix:
 Charge =  0 Multiplicity = 1
 C                     2.72158   1.8701    2.60659 
 C                     2.98182   2.86413   3.55033 
 C                     2.85679   4.20836   3.20014 
 C                     2.47252   4.55909   1.90532 
 C                     2.21282   3.56525   0.96173 
 C                     2.33697   2.22064   1.31247 
 H                     2.81978   0.81034   2.88301 
 H                     3.28427   2.58743   4.57072 
 H                     3.06129   4.99191   3.94413 
 H                     2.37406   5.61903   1.62942 
 H                     1.90995   3.84134  -0.05882 
 Si                    1.97534   0.83865  -0.00014 
 H                     0.95603   1.31573  -0.94582 
 H                     3.21094   0.52113  -0.73045 
 C                     1.32826  -0.75391   0.89912 
 H                     0.34838  -0.99223   0.54142 
 H                     1.98971  -1.57061   0.69818 
 C                     1.27289  -0.49966   2.41697 
 H                     0.63324   0.33475   2.61574 
 H                     0.88967  -1.36834   2.91037 
 H                     2.25729  -0.28874   2.77942 
 
 The following ModRedundant input section has been read:
 D       6      12      15      18 S  18 10.000                                
 

 GradGradGradGradGradGradGradGradGradGradGradGradGradGradGradGradGradGrad
 Berny optimization.
 Initialization pass.
                           ----------------------------
                           !    Initial Parameters    !
                           ! (Angstroms and Degrees)  !
 --------------------------                            --------------------------
 ! Name  Definition              Value          Derivative Info.                !
 --------------------------------------------------------------------------------
 ! R1    R(1,2)                  1.3952         estimate D2E/DX2                !
 ! R2    R(1,6)                  1.3948         estimate D2E/DX2                !
 ! R3    R(1,7)                  1.0996         estimate D2E/DX2                !
 ! R4    R(2,3)                  1.3947         estimate D2E/DX2                !
 ! R5    R(2,8)                  1.0997         estimate D2E/DX2                !
 ! R6    R(3,4)                  1.3954         estimate D2E/DX2                !
 ! R7    R(3,9)                  1.0997         estimate D2E/DX2                !
 ! R8    R(4,5)                  1.3948         estimate D2E/DX2                !
 ! R9    R(4,10)                 1.0997         estimate D2E/DX2                !
 ! R10   R(5,6)                  1.3951         estimate D2E/DX2                !
 ! R11   R(5,11)                 1.0998         estimate D2E/DX2                !
 ! R12   R(6,12)                 1.94           estimate D2E/DX2                !
 ! R13   R(12,13)                1.47           estimate D2E/DX2                !
 ! R14   R(12,14)                1.47           estimate D2E/DX2                !
 ! R15   R(12,15)                1.94           estimate D2E/DX2                !
 ! R16   R(15,16)                1.07           estimate D2E/DX2                !
 ! R17   R(15,17)                1.07           estimate D2E/DX2                !
 ! R18   R(15,18)                1.54           estimate D2E/DX2                !
 ! R19   R(18,19)                1.07           estimate D2E/DX2                !
 ! R20   R(18,20)                1.07           estimate D2E/DX2                !
 ! R21   R(18,21)                1.07           estimate D2E/DX2                !
 ! A1    A(2,1,6)              119.9985         estimate D2E/DX2                !
 ! A2    A(2,1,7)              119.9972         estimate D2E/DX2                !
 ! A3    A(6,1,7)              120.0043         estimate D2E/DX2                !
 ! A4    A(1,2,3)              120.0086         estimate D2E/DX2                !
 ! A5    A(1,2,8)              119.9808         estimate D2E/DX2                !
 ! A6    A(3,2,8)              120.0106         estimate D2E/DX2                !
 ! A7    A(2,3,4)              119.9942         estimate D2E/DX2                !
 ! A8    A(2,3,9)              120.0128         estimate D2E/DX2                !
 ! A9    A(4,3,9)              119.993          estimate D2E/DX2                !
 ! A10   A(3,4,5)              119.994          estimate D2E/DX2                !
 ! A11   A(3,4,10)             119.9811         estimate D2E/DX2                !
 ! A12   A(5,4,10)             120.0249         estimate D2E/DX2                !
 ! A13   A(4,5,6)              120.0047         estimate D2E/DX2                !
 ! A14   A(4,5,11)             120.0113         estimate D2E/DX2                !
 ! A15   A(6,5,11)             119.984          estimate D2E/DX2                !
 ! A16   A(1,6,5)              120.0            estimate D2E/DX2                !
 ! A17   A(1,6,12)             120.008          estimate D2E/DX2                !
 ! A18   A(5,6,12)             119.992          estimate D2E/DX2                !
 ! A19   A(6,12,13)            109.4712         estimate D2E/DX2                !
 ! A20   A(6,12,14)            109.4712         estimate D2E/DX2                !
 ! A21   A(6,12,15)            109.4712         estimate D2E/DX2                !
 ! A22   A(13,12,14)           109.4713         estimate D2E/DX2                !
 ! A23   A(13,12,15)           109.4712         estimate D2E/DX2                !
 ! A24   A(14,12,15)           109.4712         estimate D2E/DX2                !
 ! A25   A(12,15,16)           109.4712         estimate D2E/DX2                !
 ! A26   A(12,15,17)           109.4712         estimate D2E/DX2                !
 ! A27   A(12,15,18)           109.4712         estimate D2E/DX2                !
 ! A28   A(16,15,17)           109.4712         estimate D2E/DX2                !
 ! A29   A(16,15,18)           109.4713         estimate D2E/DX2                !
 ! A30   A(17,15,18)           109.4712         estimate D2E/DX2                !
 ! A31   A(15,18,19)           109.4712         estimate D2E/DX2                !
 ! A32   A(15,18,20)           109.4712         estimate D2E/DX2                !
 ! A33   A(15,18,21)           109.4712         estimate D2E/DX2                !
 ! A34   A(19,18,20)           109.4713         estimate D2E/DX2                !
 ! A35   A(19,18,21)           109.4712         estimate D2E/DX2                !
 ! A36   A(20,18,21)           109.4712         estimate D2E/DX2                !
 ! D1    D(6,1,2,3)              0.0323         estimate D2E/DX2                !
 ! D2    D(6,1,2,8)            179.9532         estimate D2E/DX2                !
 ! D3    D(7,1,2,3)           -179.9729         estimate D2E/DX2                !
 ! D4    D(7,1,2,8)             -0.052          estimate D2E/DX2                !
 ! D5    D(2,1,6,5)              0.0149         estimate D2E/DX2                !
 ! D6    D(2,1,6,12)           179.9892         estimate D2E/DX2                !
 ! D7    D(7,1,6,5)           -179.9798         estimate D2E/DX2                !
 ! D8    D(7,1,6,12)            -0.0055         estimate D2E/DX2                !
 ! D9    D(1,2,3,4)             -0.0568         estimate D2E/DX2                !
 ! D10   D(1,2,3,9)            179.9619         estimate D2E/DX2                !
 ! D11   D(8,2,3,4)           -179.9777         estimate D2E/DX2                !
 ! D12   D(8,2,3,9)              0.041          estimate D2E/DX2                !
 ! D13   D(2,3,4,5)              0.0341         estimate D2E/DX2                !
 ! D14   D(2,3,4,10)          -179.9964         estimate D2E/DX2                !
 ! D15   D(9,3,4,5)           -179.9846         estimate D2E/DX2                !
 ! D16   D(9,3,4,10)            -0.0151         estimate D2E/DX2                !
 ! D17   D(3,4,5,6)              0.0131         estimate D2E/DX2                !
 ! D18   D(3,4,5,11)          -179.9995         estimate D2E/DX2                !
 ! D19   D(10,4,5,6)          -179.9563         estimate D2E/DX2                !
 ! D20   D(10,4,5,11)            0.0311         estimate D2E/DX2                !
 ! D21   D(4,5,6,1)             -0.0376         estimate D2E/DX2                !
 ! D22   D(4,5,6,12)           179.9881         estimate D2E/DX2                !
 ! D23   D(11,5,6,1)           179.975          estimate D2E/DX2                !
 ! D24   D(11,5,6,12)            0.0007         estimate D2E/DX2                !
 ! D25   D(1,6,12,13)          149.426          estimate D2E/DX2                !
 ! D26   D(1,6,12,14)          -90.574          estimate D2E/DX2                !
 ! D27   D(1,6,12,15)           29.426          estimate D2E/DX2                !
 ! D28   D(5,6,12,13)          -30.5997         estimate D2E/DX2                !
 ! D29   D(5,6,12,14)           89.4003         estimate D2E/DX2                !
 ! D30   D(5,6,12,15)         -150.5997         estimate D2E/DX2                !
 ! D31   D(6,12,15,16)         120.0            estimate D2E/DX2                !
 ! D32   D(6,12,15,17)        -120.0            estimate D2E/DX2                !
 ! D33   D(6,12,15,18)           0.0            Scan                            !
 ! D34   D(13,12,15,16)          0.0            estimate D2E/DX2                !
 ! D35   D(13,12,15,17)        120.0            estimate D2E/DX2                !
 ! D36   D(13,12,15,18)       -120.0            estimate D2E/DX2                !
 ! D37   D(14,12,15,16)       -120.0            estimate D2E/DX2                !
 ! D38   D(14,12,15,17)          0.0            estimate D2E/DX2                !
 ! D39   D(14,12,15,18)        120.0            estimate D2E/DX2                !
 ! D40   D(12,15,18,19)         58.3999         estimate D2E/DX2                !
 ! D41   D(12,15,18,20)        178.3999         estimate D2E/DX2                !
 ! D42   D(12,15,18,21)        -61.6001         estimate D2E/DX2                !
 ! D43   D(16,15,18,19)        -61.6001         estimate D2E/DX2                !
 ! D44   D(16,15,18,20)         58.3999         estimate D2E/DX2                !
 ! D45   D(16,15,18,21)        178.3999         estimate D2E/DX2                !
 ! D46   D(17,15,18,19)        178.3999         estimate D2E/DX2                !
 ! D47   D(17,15,18,20)        -61.6001         estimate D2E/DX2                !
 ! D48   D(17,15,18,21)         58.3999         estimate D2E/DX2                !
 --------------------------------------------------------------------------------
 Trust Radius=3.00D-01 FncErr=1.00D-07 GrdErr=1.00D-07
 Number of optimizations in scan=  19
 Number of steps in this run=    115 maximum allowed number of steps=    126.
 GradGradGradGradGradGradGradGradGradGradGradGradGradGradGradGradGradGrad

                          Input orientation:                          
 ---------------------------------------------------------------------
 Center     Atomic      Atomic             Coordinates (Angstroms)
 Number     Number       Type             X           Y           Z
 ---------------------------------------------------------------------
      1          6           0        2.721581    1.870098    2.606586
      2          6           0        2.981819    2.864129    3.550329
      3          6           0        2.856794    4.208359    3.200136
      4          6           0        2.472515    4.559087    1.905324
      5          6           0        2.212816    3.565249    0.961726
      6          6           0        2.336969    2.220638    1.312467
      7          1           0        2.819779    0.810340    2.883012
      8          1           0        3.284274    2.587430    4.570721
      9          1           0        3.061291    4.991911    3.944128
     10          1           0        2.374061    5.619032    1.629425
     11          1           0        1.909948    3.841341   -0.058822
     12         14           0        1.975339    0.838649   -0.000138
     13          1           0        0.956029    1.315726   -0.945815
     14          1           0        3.210943    0.521126   -0.730455
     15          6           0        1.328260   -0.753906    0.899116
     16          1           0        0.348384   -0.992225    0.541418
     17          1           0        1.989715   -1.570607    0.698177
     18          6           0        1.272887   -0.499659    2.416973
     19          1           0        0.633235    0.334750    2.615740
     20          1           0        0.889666   -1.368337    2.910369
     21          1           0        2.257285   -0.288736    2.779425
 ---------------------------------------------------------------------
                    Distance matrix (angstroms):
                    1          2          3          4          5
     1  C    0.000000
     2  C    1.395160   0.000000
     3  C    2.416205   1.394712   0.000000
     4  C    2.790065   2.416260   1.395427   0.000000
     5  C    2.416183   2.789946   2.416356   1.394825   0.000000
     6  C    1.394829   2.416183   2.790080   2.416236   1.395138
     7  H    1.099610   2.165553   3.412986   3.889675   3.413102
     8  H    2.165414   1.099655   2.165330   3.413316   3.889601
     9  H    3.413229   2.165375   1.099680   2.165806   3.413209
    10  H    3.889745   3.413024   2.165678   1.099680   2.165606
    11  H    3.413055   3.889707   3.413506   2.165528   1.099761
    12  Si   2.900995   4.209677   4.730080   4.209469   2.901021
    13  H    4.005503   5.168819   5.400847   4.576912   3.206022
    14  H    3.632498   4.885414   5.400986   4.878292   3.623039
    15  C    3.426689   4.780520   5.679365   5.527176   4.409247
    16  H    4.253220   5.555177   6.356648   6.098299   4.941997
    17  H    4.002013   5.365251   6.356735   6.266056   5.147451
    18  C    2.783957   3.939544   5.028672   5.224156   4.418674
    19  H    2.592020   3.575900   4.504507   4.661831   3.958151
    20  H    3.733050   4.764496   5.920566   6.216903   5.467010
    21  H    2.214952   3.325628   4.556345   4.930697   4.261362
                    6          7          8          9         10
     6  C    0.000000
     7  H    2.165331   0.000000
     8  H    3.412938   2.494427   0.000000
     9  H    3.889760   4.320860   2.494768   0.000000
    10  H    3.413344   4.989355   4.320917   2.494678   0.000000
    11  H    2.165516   4.320781   4.989362   4.321228   2.495147
    12  Si   1.940000   3.004402   5.065994   5.829760   5.066213
    13  H    2.797445   4.288227   6.121285   6.469776   5.211633
    14  H    2.797445   3.646066   5.690119   6.470088   5.679617
    15  C    3.168007   2.933827   5.335842   6.729778   6.499338
    16  H    3.856356   3.852285   6.137480   7.399202   6.999703
    17  H    3.856356   3.336378   5.827671   7.399400   7.259880
    18  C    3.122855   2.079943   4.267836   5.973937   6.266673
    19  H    2.856188   2.253573   3.990554   5.417492   5.650392
    20  H    4.186732   2.910793   4.913146   6.799806   7.257243
    21  H    2.907796   1.238991   3.540591   5.467009   6.019789
                   11         12         13         14         15
    11  H    0.000000
    12  Si   3.003977   0.000000
    13  H    2.841734   1.470000   0.000000
    14  H    3.628706   1.470000   2.400500   0.000000
    15  C    4.729937   1.940000   2.797445   2.797445   0.000000
    16  H    5.114893   2.508459   2.812069   3.478812   1.070000
    17  H    5.465217   2.508459   3.478812   2.812069   1.070000
    18  C    5.037826   2.850777   3.834627   3.834627   1.540000
    19  H    4.591238   2.982947   3.708259   4.228041   2.148263
    20  H    6.082583   3.810581   4.698804   4.713172   2.148263
    21  H    5.023328   3.012716   4.259692   3.726203   2.148263
                   16         17         18         19         20
    16  H    0.000000
    17  H    1.747303   0.000000
    18  C    2.148263   2.148263   0.000000
    19  H    2.478874   3.024479   1.070000   0.000000
    20  H    2.458938   2.478874   1.070000   1.747303   0.000000
    21  H    3.024479   2.458938   1.070000   1.747303   1.747303
                   21
    21  H    0.000000
 Stoichiometry    C8H12Si
 Framework group  C1[X(C8H12Si)]
 Deg. of freedom    57
 Full point group                 C1      NOp   1
 Largest Abelian subgroup         C1      NOp   1
 Largest concise Abelian subgroup C1      NOp   1
                         Standard orientation:                         
 ---------------------------------------------------------------------
 Center     Atomic      Atomic             Coordinates (Angstroms)
 Number     Number       Type             X           Y           Z
 ---------------------------------------------------------------------
      1          6           0        0.516377    0.893388    0.401193
      2          6           0        1.815056    1.395566    0.313314
      3          6           0        2.865018    0.553989   -0.053494
      4          6           0        2.616707   -0.790737   -0.331471
      5          6           0        1.318388   -1.292833   -0.243132
      6          6           0        0.268063   -0.450640    0.122844
      7          1           0       -0.311357    1.557169    0.689975
      8          1           0        2.010372    2.455395    0.532075
      9          1           0        3.888580    0.949883   -0.123393
     10          1           0        3.444734   -1.454113   -0.620610
     11          1           0        1.122367   -2.352590   -0.462140
     12         14           0       -1.537621   -1.149293    0.245261
     13          1           0       -1.705578   -2.244990   -0.720212
     14          1           0       -1.776764   -1.653554    1.605199
     15          6           0       -2.806045    0.263563   -0.152909
     16          1           0       -3.394696   -0.014482   -1.002074
     17          1           0       -3.446512    0.416020    0.690572
     18          6           0       -2.043928    1.565861   -0.460800
     19          1           0       -1.382874    1.405501   -1.286749
     20          1           0       -2.742346    2.337990   -0.707639
     21          1           0       -1.477042    1.858935    0.398064
 ---------------------------------------------------------------------
 Rotational constants (GHZ):      2.6881452      0.9223232      0.7224036
 Standard basis: 6-31G (6D, 7F)
 There are   109 symmetry adapted cartesian basis functions of A   symmetry.
 There are   109 symmetry adapted basis functions of A   symmetry.
   109 basis functions,   270 primitive gaussians,   109 cartesian basis functions
    37 alpha electrons       37 beta electrons
       nuclear repulsion energy       490.6692224110 Hartrees.
 NAtoms=   21 NActive=   21 NUniq=   21 SFac= 1.00D+00 NAtFMM=   60 NAOKFM=F Big=F
 Integral buffers will be    131072 words long.
 Raffenetti 1 integral format.
 Two-electron integral symmetry is turned on.
 One-electron integrals computed using PRISM.
 NBasis=   109 RedAO= T EigKep=  6.62D-04  NBF=   109
 NBsUse=   109 1.00D-06 EigRej= -1.00D+00 NBFU=   109
 ExpMin= 7.78D-02 ExpMax= 1.61D+04 ExpMxC= 2.43D+03 IAcc=2 IRadAn=         4 AccDes= 0.00D+00
 Harris functional with IExCor=  205 and IRadAn=       4 diagonalized for initial guess.
 HarFok:  IExCor=  205 AccDes= 0.00D+00 IRadAn=         4 IDoV= 1 UseB2=F ITyADJ=14
 ICtDFT=  3500011 ScaDFX=  1.000000  1.000000  1.000000  1.000000
 FoFCou: FMM=F IPFlag=           0 FMFlag=      100000 FMFlg1=           0
         NFxFlg=           0 DoJE=T BraDBF=F KetDBF=T FulRan=T
         wScrn=  0.000000 ICntrl=     500 IOpCl=  0 I1Cent=   200000004 NGrid=           0
         NMat0=    1 NMatS0=      1 NMatT0=    0 NMatD0=    1 NMtDS0=    0 NMtDT0=    0
 Petite list used in FoFCou.
 Keep R1 ints in memory in canonical form, NReq=18935475.
 Requested convergence on RMS density matrix=1.00D-08 within 128 cycles.
 Requested convergence on MAX density matrix=1.00D-06.
 Requested convergence on             energy=1.00D-06.
 No special actions if energy rises.
 SCF Done:  E(RHF) =  -598.655412828     A.U. after   13 cycles
            NFock= 13  Conv=0.97D-08     -V/T= 1.9991

 **********************************************************************

            Population analysis using the SCF density.

 **********************************************************************

 Orbital symmetries:
       Occupied  (A) (A) (A) (A) (A) (A) (A) (A) (A) (A) (A) (A)
                 (A) (A) (A) (A) (A) (A) (A) (A) (A) (A) (A) (A)
                 (A) (A) (A) (A) (A) (A) (A) (A) (A) (A) (A) (A)
                 (A)
       Virtual   (A) (A) (A) (A) (A) (A) (A) (A) (A) (A) (A) (A)
                 (A) (A) (A) (A) (A) (A) (A) (A) (A) (A) (A) (A)
                 (A) (A) (A) (A) (A) (A) (A) (A) (A) (A) (A) (A)
                 (A) (A) (A) (A) (A) (A) (A) (A) (A) (A) (A) (A)
                 (A) (A) (A) (A) (A) (A) (A) (A) (A) (A) (A) (A)
                 (A) (A) (A) (A) (A) (A) (A) (A) (A) (A) (A) (A)
 The electronic state is 1-A.
 Alpha  occ. eigenvalues --  -68.77263 -11.24232 -11.24172 -11.23913 -11.23849
 Alpha  occ. eigenvalues --  -11.23438 -11.23195 -11.21228 -11.20983  -6.13705
 Alpha  occ. eigenvalues --   -4.24265  -4.24211  -4.24116  -1.15160  -1.04093
 Alpha  occ. eigenvalues --   -1.01297  -1.00543  -0.86364  -0.82021  -0.81150
 Alpha  occ. eigenvalues --   -0.72780  -0.67199  -0.64232  -0.62116  -0.61248
 Alpha  occ. eigenvalues --   -0.59385  -0.56539  -0.53971  -0.51861  -0.50760
 Alpha  occ. eigenvalues --   -0.50219  -0.46854  -0.45875  -0.42638  -0.40229
 Alpha  occ. eigenvalues --   -0.33315  -0.33107
 Alpha virt. eigenvalues --    0.12960   0.13993   0.17056   0.18723   0.23511
 Alpha virt. eigenvalues --    0.24398   0.26062   0.27237   0.29368   0.29837
 Alpha virt. eigenvalues --    0.31638   0.32213   0.32652   0.33395   0.35059
 Alpha virt. eigenvalues --    0.35462   0.38368   0.39352   0.43109   0.45688
 Alpha virt. eigenvalues --    0.47363   0.48779   0.50306   0.53731   0.55505
 Alpha virt. eigenvalues --    0.58391   0.70360   0.76380   0.77265   0.77856
 Alpha virt. eigenvalues --    0.78931   0.80119   0.81535   0.84316   0.85713
 Alpha virt. eigenvalues --    0.85866   0.87792   0.88767   0.90006   0.91150
 Alpha virt. eigenvalues --    0.92301   0.93973   0.99814   1.00252   1.04596
 Alpha virt. eigenvalues --    1.08799   1.13004   1.13182   1.15099   1.18152
 Alpha virt. eigenvalues --    1.19773   1.22065   1.23165   1.24307   1.26416
 Alpha virt. eigenvalues --    1.27073   1.27696   1.29321   1.30396   1.31018
 Alpha virt. eigenvalues --    1.34142   1.37726   1.40479   1.41623   1.43545
 Alpha virt. eigenvalues --    1.45539   1.48589   1.51767   1.69357   1.72826
 Alpha virt. eigenvalues --    1.86684   2.15885
          Condensed to atoms (all electrons):
               1          2          3          4          5          6
     1  C    5.044759   0.501090  -0.041013  -0.044585  -0.023140   0.454406
     2  C    0.501090   5.008148   0.502265  -0.048130  -0.045965  -0.050831
     3  C   -0.041013   0.502265   5.002759   0.504898  -0.041752  -0.049550
     4  C   -0.044585  -0.048130   0.504898   5.007466   0.504426  -0.058008
     5  C   -0.023140  -0.045965  -0.041752   0.504426   4.984747   0.469731
     6  C    0.454406  -0.050831  -0.049550  -0.058008   0.469731   5.521329
     7  H    0.403326  -0.015090   0.002488   0.000266   0.002486  -0.036048
     8  H   -0.026646   0.372199  -0.024982   0.002353  -0.000014   0.003677
     9  H    0.002905  -0.024511   0.372944  -0.025028   0.002565  -0.000130
    10  H   -0.000137   0.002598  -0.026066   0.372286  -0.025299   0.003874
    11  H    0.002304   0.000094   0.002340  -0.022557   0.375135  -0.025116
    12  Si  -0.011358   0.002147  -0.000798   0.002887   0.000909   0.248164
    13  H   -0.001540  -0.000015  -0.000004   0.000304   0.007599  -0.037419
    14  H   -0.000833   0.000025  -0.000001   0.000004  -0.001397  -0.031057
    15  C    0.013212   0.000377  -0.000008  -0.000018  -0.001164  -0.042584
    16  H   -0.000269  -0.000002   0.000000   0.000000  -0.000007   0.000826
    17  H   -0.000130  -0.000005   0.000000   0.000000  -0.000002   0.000859
    18  C   -0.047580   0.000558  -0.000039   0.000011   0.000076   0.005413
    19  H   -0.001378  -0.000318   0.000017  -0.000013  -0.000036   0.000538
    20  H    0.001845   0.000000   0.000001   0.000000  -0.000003   0.000076
    21  H   -0.042694   0.001565  -0.000060  -0.000009  -0.000168  -0.000734
               7          8          9         10         11         12
     1  C    0.403326  -0.026646   0.002905  -0.000137   0.002304  -0.011358
     2  C   -0.015090   0.372199  -0.024511   0.002598   0.000094   0.002147
     3  C    0.002488  -0.024982   0.372944  -0.026066   0.002340  -0.000798
     4  C    0.000266   0.002353  -0.025028   0.372286  -0.022557   0.002887
     5  C    0.002486  -0.000014   0.002565  -0.025299   0.375135   0.000909
     6  C   -0.036048   0.003677  -0.000130   0.003874  -0.025116   0.248164
     7  H    0.521847   0.000114  -0.000120   0.000004  -0.000119   0.001748
     8  H    0.000114   0.473074  -0.000384  -0.000094   0.000006  -0.000136
     9  H   -0.000120  -0.000384   0.470512  -0.000567  -0.000099   0.000011
    10  H    0.000004  -0.000094  -0.000567   0.473205  -0.000170  -0.000128
    11  H   -0.000119   0.000006  -0.000099  -0.000170   0.466942   0.000403
    12  Si   0.001748  -0.000136   0.000011  -0.000128   0.000403  11.664269
    13  H   -0.000031   0.000000   0.000000   0.000000   0.000076   0.378469
    14  H   -0.000330   0.000001   0.000000   0.000001  -0.000219   0.376383
    15  C    0.002662   0.000001   0.000000   0.000000  -0.000010   0.317400
    16  H   -0.000115   0.000000   0.000000   0.000000   0.000001  -0.020848
    17  H   -0.000123   0.000000   0.000000   0.000000   0.000000  -0.020454
    18  C   -0.039368   0.000076   0.000001   0.000000   0.000000  -0.036515
    19  H   -0.002813  -0.000015   0.000000   0.000000  -0.000002  -0.002655
    20  H    0.002279  -0.000002   0.000000   0.000000   0.000000   0.004830
    21  H   -0.032553   0.000038   0.000001   0.000000   0.000005  -0.004585
              13         14         15         16         17         18
     1  C   -0.001540  -0.000833   0.013212  -0.000269  -0.000130  -0.047580
     2  C   -0.000015   0.000025   0.000377  -0.000002  -0.000005   0.000558
     3  C   -0.000004  -0.000001  -0.000008   0.000000   0.000000  -0.000039
     4  C    0.000304   0.000004  -0.000018   0.000000   0.000000   0.000011
     5  C    0.007599  -0.001397  -0.001164  -0.000007  -0.000002   0.000076
     6  C   -0.037419  -0.031057  -0.042584   0.000826   0.000859   0.005413
     7  H   -0.000031  -0.000330   0.002662  -0.000115  -0.000123  -0.039368
     8  H    0.000000   0.000001   0.000001   0.000000   0.000000   0.000076
     9  H    0.000000   0.000000   0.000000   0.000000   0.000000   0.000001
    10  H    0.000000   0.000001   0.000000   0.000000   0.000000   0.000000
    11  H    0.000076  -0.000219  -0.000010   0.000001   0.000000   0.000000
    12  Si   0.378469   0.376383   0.317400  -0.020848  -0.020454  -0.036515
    13  H    0.916749  -0.029524  -0.028104  -0.000500   0.000514   0.000962
    14  H   -0.029524   0.917055  -0.031859   0.000492  -0.000373   0.000850
    15  C   -0.028104  -0.031859   5.629292   0.383683   0.380848   0.228101
    16  H   -0.000500   0.000492   0.383683   0.516384  -0.022227  -0.037591
    17  H    0.000514  -0.000373   0.380848  -0.022227   0.524155  -0.039036
    18  C    0.000962   0.000850   0.228101  -0.037591  -0.039036   5.185675
    19  H    0.000016  -0.000033  -0.047460  -0.002291   0.004353   0.402556
    20  H   -0.000038  -0.000027  -0.040917  -0.004749  -0.004181   0.393793
    21  H    0.000018   0.000189  -0.056704   0.004810  -0.003000   0.416570
              19         20         21
     1  C   -0.001378   0.001845  -0.042694
     2  C   -0.000318   0.000000   0.001565
     3  C    0.000017   0.000001  -0.000060
     4  C   -0.000013   0.000000  -0.000009
     5  C   -0.000036  -0.000003  -0.000168
     6  C    0.000538   0.000076  -0.000734
     7  H   -0.002813   0.002279  -0.032553
     8  H   -0.000015  -0.000002   0.000038
     9  H    0.000000   0.000000   0.000001
    10  H    0.000000   0.000000   0.000000
    11  H   -0.000002   0.000000   0.000005
    12  Si  -0.002655   0.004830  -0.004585
    13  H    0.000016  -0.000038   0.000018
    14  H   -0.000033  -0.000027   0.000189
    15  C   -0.047460  -0.040917  -0.056704
    16  H   -0.002291  -0.004749   0.004810
    17  H    0.004353  -0.004181  -0.003000
    18  C    0.402556   0.393793   0.416570
    19  H    0.542862  -0.028221  -0.037761
    20  H   -0.028221   0.550736  -0.034253
    21  H   -0.037761  -0.034253   0.652461
 Mulliken charges:
               1
     1  C   -0.182546
     2  C   -0.206202
     3  C   -0.203438
     4  C   -0.196555
     5  C   -0.208726
     6  C   -0.377416
     7  H    0.189491
     8  H    0.200735
     9  H    0.201900
    10  H    0.200493
    11  H    0.200987
    12  Si   1.099854
    13  H   -0.207530
    14  H   -0.199343
    15  C   -0.706749
    16  H    0.182404
    17  H    0.178800
    18  C   -0.434511
    19  H    0.172653
    20  H    0.158830
    21  H    0.136866
 Sum of Mulliken charges =   0.00000
 Mulliken charges with hydrogens summed into heavy atoms:
               1
     1  C    0.006945
     2  C   -0.005467
     3  C   -0.001537
     4  C    0.003938
     5  C   -0.007739
     6  C   -0.377416
    12  Si   0.692981
    15  C   -0.345544
    18  C    0.033839
 Electronic spatial extent (au):  <R**2>=           1632.0289
 Charge=              0.0000 electrons
 Dipole moment (field-independent basis, Debye):
    X=              0.0476    Y=              0.6501    Z=             -0.2480  Tot=              0.6974
 Quadrupole moment (field-independent basis, Debye-Ang):
   XX=            -60.0405   YY=            -62.0145   ZZ=            -68.1313
   XY=             -0.8352   XZ=             -0.8972   YZ=              2.1406
 Traceless Quadrupole moment (field-independent basis, Debye-Ang):
   XX=              3.3549   YY=              1.3809   ZZ=             -4.7358
   XY=             -0.8352   XZ=             -0.8972   YZ=              2.1406
 Octapole moment (field-independent basis, Debye-Ang**2):
  XXX=             19.2484  YYY=              8.5551  ZZZ=             -4.2090  XYY=             10.2610
  XXY=              3.3451  XXZ=             -4.9908  XZZ=             -4.8996  YZZ=              4.5652
  YYZ=              0.8920  XYZ=              1.9765
 Hexadecapole moment (field-independent basis, Debye-Ang**3):
 XXXX=          -1514.2977 YYYY=           -584.8871 ZZZZ=           -152.7351 XXXY=              0.0067
 XXXZ=            -13.7999 YYYX=            -13.8641 YYYZ=             10.0721 ZZZX=              6.4972
 ZZZY=              4.4585 XXYY=           -354.7873 XXZZ=           -304.8864 YYZZ=           -132.4533
 XXYZ=             10.0469 YYXZ=             -1.8934 ZZXY=             -9.7159
 N-N= 4.906692224110D+02 E-N=-2.391625427718D+03  KE= 5.992066784291D+02
 Calling FoFJK, ICntrl=      2127 FMM=F ISym2X=0 I1Cent= 0 IOpClX= 0 NMat=1 NMatS=1 NMatT=0.
 ***** Axes restored to original set *****
 -------------------------------------------------------------------
 Center     Atomic                   Forces (Hartrees/Bohr)
 Number     Number              X              Y              Z
 -------------------------------------------------------------------
      1        6           0.018361989    0.007018259    0.012386416
      2        6           0.003441814   -0.001571466    0.009862260
      3        6           0.001196245    0.008172680    0.007449801
      4        6          -0.000596131    0.012580609   -0.003209191
      5        6          -0.002320917    0.007366616   -0.004289980
      6        6          -0.003388548   -0.011392951   -0.014116190
      7        1           0.015893316    0.059091762   -0.003424502
      8        1          -0.004578070    0.004905156   -0.016911953
      9        1          -0.003639887   -0.013114734   -0.012682620
     10        1           0.001802973   -0.017721995    0.004794820
     11        1           0.004568433   -0.003356428    0.017300011
     12       14          -0.001600012   -0.001100071    0.016361859
     13        1          -0.004538444    0.005211103   -0.007503306
     14        1           0.007983714   -0.001233135   -0.006898671
     15        6           0.007627587    0.019561294    0.007906109
     16        1          -0.007629254   -0.004601552   -0.005831935
     17        1           0.003476983   -0.009246418   -0.004746623
     18        6          -0.009373030   -0.027692145   -0.015466668
     19        1          -0.002905727    0.004886692    0.008286393
     20        1          -0.005064538   -0.007623416    0.007528971
     21        1          -0.018718497   -0.030139861    0.003205000
 -------------------------------------------------------------------
 Cartesian Forces:  Max     0.059091762 RMS     0.012784760

 GradGradGradGradGradGradGradGradGradGradGradGradGradGradGradGradGradGrad
 Berny optimization.
 FormGI is forming the generalized inverse of G from B-inverse, IUseBI=4.
 Internal  Forces:  Max     0.232763742 RMS     0.037949692
 Search for a local minimum.
 Step number   1 out of a maximum of  115 on scan point     1 out of    19
 All quantities printed in internal units (Hartrees-Bohrs-Radians)
 Mixed Optimization -- RFO/linear search
 Second derivative matrix not updated -- first step.
 ITU=  0
     Eigenvalues ---    0.00237   0.00239   0.01388   0.01616   0.02152
     Eigenvalues ---    0.02153   0.02154   0.02155   0.02155   0.02155
     Eigenvalues ---    0.02156   0.02157   0.04084   0.04897   0.05411
     Eigenvalues ---    0.05720   0.05720   0.07655   0.08670   0.10639
     Eigenvalues ---    0.12177   0.16000   0.16000   0.16000   0.16000
     Eigenvalues ---    0.16000   0.16000   0.16000   0.16000   0.17593
     Eigenvalues ---    0.17593   0.18253   0.18253   0.21948   0.21983
     Eigenvalues ---    0.22000   0.22000   0.23486   0.25000   0.28519
     Eigenvalues ---    0.33709   0.33718   0.33718   0.33720   0.33725
     Eigenvalues ---    0.37230   0.37230   0.37230   0.37230   0.37230
     Eigenvalues ---    0.42116   0.42305   0.46412   0.46453   0.46466
     Eigenvalues ---    0.464971000.000001000.000001000.000001000.00000
     Eigenvalues --- 1000.000001000.000001000.000001000.000001000.00000
     Eigenvalues --- 1000.000001000.000001000.000001000.000001000.00000
     Eigenvalues --- 1000.000001000.000001000.000001000.000001000.00000
     Eigenvalues --- 1000.000001000.000001000.000001000.000001000.00000
     Eigenvalues --- 1000.000001000.000001000.000001000.000001000.00000
     Eigenvalues --- 1000.000001000.000001000.000001000.000001000.00000
     Eigenvalues --- 1000.000001000.000001000.000001000.000001000.00000
     Eigenvalues --- 1000.000001000.000001000.000001000.000001000.00000
     Eigenvalues --- 1000.000001000.000001000.000001000.000001000.00000
 RFO step:  Lambda=-2.98207691D-01 EMin= 2.36824035D-03
 Linear search not attempted -- first point.
 Maximum step size (   0.300) exceeded in Quadratic search.
    -- Step size scaled by   0.419
 Iteration  1 RMS(Cart)=  0.24150710 RMS(Int)=  0.01328524
 Iteration  2 RMS(Cart)=  0.08143894 RMS(Int)=  0.00133561
 Iteration  3 RMS(Cart)=  0.00245190 RMS(Int)=  0.00063033
 Iteration  4 RMS(Cart)=  0.00000303 RMS(Int)=  0.00063033
 Iteration  5 RMS(Cart)=  0.00000000 RMS(Int)=  0.00063033
 Iteration  1 RMS(Cart)=  0.00009395 RMS(Int)=  0.00005443
 Iteration  2 RMS(Cart)=  0.00006118 RMS(Int)=  0.00006029
 Iteration  3 RMS(Cart)=  0.00003984 RMS(Int)=  0.00006926
 Iteration  4 RMS(Cart)=  0.00002594 RMS(Int)=  0.00007655
 Iteration  5 RMS(Cart)=  0.00001689 RMS(Int)=  0.00008175
 Iteration  6 RMS(Cart)=  0.00001100 RMS(Int)=  0.00008528
 Iteration  7 RMS(Cart)=  0.00000716 RMS(Int)=  0.00008764
 Iteration  8 RMS(Cart)=  0.00000466 RMS(Int)=  0.00008920
 Iteration  9 RMS(Cart)=  0.00000304 RMS(Int)=  0.00009022
 Iteration 10 RMS(Cart)=  0.00000198 RMS(Int)=  0.00009090
 Iteration 11 RMS(Cart)=  0.00000129 RMS(Int)=  0.00009133
 Iteration 12 RMS(Cart)=  0.00000084 RMS(Int)=  0.00009162
 Variable       Old X    -DE/DX   Delta X   Delta X   Delta X     New X
                                 (Linear)    (Quad)   (Total)
    R1        2.63647  -0.00387   0.00000  -0.00205  -0.00206   2.63442
    R2        2.63584   0.00854   0.00000   0.00499   0.00502   2.64086
    R3        2.07796  -0.05639   0.00000  -0.03714  -0.03714   2.04082
    R4        2.63562  -0.01635   0.00000  -0.00920  -0.00923   2.62639
    R5        2.07805  -0.01819   0.00000  -0.01198  -0.01198   2.06607
    R6        2.63697  -0.01937   0.00000  -0.01094  -0.01098   2.62600
    R7        2.07809  -0.01860   0.00000  -0.01225  -0.01225   2.06584
    R8        2.63584  -0.00861   0.00000  -0.00480  -0.00480   2.63104
    R9        2.07809  -0.01845   0.00000  -0.01215  -0.01215   2.06594
   R10        2.63643   0.00805   0.00000   0.00465   0.00469   2.64111
   R11        2.07825  -0.01815   0.00000  -0.01196  -0.01196   2.06629
   R12        3.66607   0.04084   0.00000   0.03605   0.03605   3.70212
   R13        2.77790   0.00967   0.00000   0.00842   0.00842   2.78631
   R14        2.77790   0.01040   0.00000   0.00906   0.00906   2.78696
   R15        3.66607   0.05631   0.00000   0.04971   0.04971   3.71578
   R16        2.02201   0.00996   0.00000   0.00622   0.00622   2.02823
   R17        2.02201   0.01010   0.00000   0.00630   0.00630   2.02831
   R18        2.91018  -0.00520   0.00000  -0.00373  -0.00373   2.90645
   R19        2.02201   0.00709   0.00000   0.00442   0.00442   2.02643
   R20        2.02201   0.01147   0.00000   0.00716   0.00716   2.02917
   R21        2.02201  -0.02208   0.00000  -0.01378  -0.01378   2.00823
    A1        2.09437   0.01418   0.00000   0.01173   0.01175   2.10612
    A2        2.09435  -0.02455   0.00000  -0.02182  -0.02185   2.07250
    A3        2.09447   0.01037   0.00000   0.01008   0.01006   2.10453
    A4        2.09455   0.00712   0.00000   0.00523   0.00519   2.09974
    A5        2.09406  -0.00322   0.00000  -0.00230  -0.00228   2.09177
    A6        2.09458  -0.00390   0.00000  -0.00292  -0.00291   2.09167
    A7        2.09429  -0.00654   0.00000  -0.00637  -0.00643   2.08786
    A8        2.09462   0.00348   0.00000   0.00338   0.00341   2.09802
    A9        2.09427   0.00306   0.00000   0.00299   0.00302   2.09729
   A10        2.09429   0.00043   0.00000  -0.00049  -0.00052   2.09377
   A11        2.09407  -0.00043   0.00000   0.00005   0.00006   2.09413
   A12        2.09483   0.00000   0.00000   0.00045   0.00046   2.09529
   A13        2.09448   0.02370   0.00000   0.01911   0.01914   2.11362
   A14        2.09459  -0.01315   0.00000  -0.01074  -0.01076   2.08384
   A15        2.09411  -0.01055   0.00000  -0.00837  -0.00838   2.08573
   A16        2.09440  -0.03890   0.00000  -0.02921  -0.02916   2.06524
   A17        2.09453   0.11376   0.00000   0.08661   0.08656   2.18109
   A18        2.09426  -0.07487   0.00000  -0.05741  -0.05746   2.03680
   A19        1.91063  -0.06932   0.00000  -0.05580  -0.05411   1.85652
   A20        1.91063  -0.07101   0.00000  -0.05470  -0.05726   1.85337
   A21        1.91063   0.23276   0.00000   0.19128   0.19198   2.10261
   A22        1.91063   0.02885   0.00000   0.01271   0.00918   1.91982
   A23        1.91063  -0.07810   0.00000  -0.06560  -0.06441   1.84623
   A24        1.91063  -0.04319   0.00000  -0.02788  -0.02873   1.88191
   A25        1.91063  -0.05386   0.00000  -0.04530  -0.04487   1.86576
   A26        1.91063  -0.03766   0.00000  -0.02670  -0.02723   1.88340
   A27        1.91063   0.15719   0.00000   0.12934   0.12984   2.04047
   A28        1.91063   0.02269   0.00000   0.01112   0.00936   1.91999
   A29        1.91063  -0.04541   0.00000  -0.03707  -0.03658   1.87405
   A30        1.91063  -0.04294   0.00000  -0.03139  -0.03177   1.87887
   A31        1.91063   0.01195   0.00000   0.01190   0.01184   1.92248
   A32        1.91063  -0.00304   0.00000  -0.00385  -0.00384   1.90679
   A33        1.91063   0.00767   0.00000   0.00709   0.00703   1.91766
   A34        1.91063  -0.00524   0.00000  -0.00495  -0.00494   1.90569
   A35        1.91063   0.00033   0.00000   0.00244   0.00232   1.91295
   A36        1.91063  -0.01165   0.00000  -0.01262  -0.01261   1.89802
    D1        0.00056  -0.00089   0.00000  -0.00121  -0.00133  -0.00077
    D2        3.14078   0.00098   0.00000   0.00124   0.00121  -3.14120
    D3       -3.14112  -0.00823   0.00000  -0.01081  -0.01092   3.13115
    D4       -0.00091  -0.00637   0.00000  -0.00835  -0.00838  -0.00929
    D5        0.00026   0.00512   0.00000   0.00683   0.00677   0.00703
    D6        3.14140  -0.00358   0.00000  -0.00482  -0.00522   3.13618
    D7       -3.14124   0.01247   0.00000   0.01643   0.01653  -3.12471
    D8       -0.00010   0.00377   0.00000   0.00477   0.00454   0.00444
    D9       -0.00099  -0.00256   0.00000  -0.00338  -0.00334  -0.00433
   D10        3.14093   0.00014   0.00000   0.00020   0.00025   3.14118
   D11       -3.14120  -0.00443   0.00000  -0.00584  -0.00588   3.13610
   D12        0.00072  -0.00172   0.00000  -0.00226  -0.00229  -0.00158
   D13        0.00060   0.00179   0.00000   0.00236   0.00242   0.00301
   D14       -3.14153   0.00231   0.00000   0.00307   0.00305  -3.13848
   D15       -3.14132  -0.00092   0.00000  -0.00122  -0.00117   3.14069
   D16       -0.00026  -0.00040   0.00000  -0.00051  -0.00054  -0.00080
   D17        0.00023   0.00246   0.00000   0.00327   0.00321   0.00344
   D18       -3.14158   0.00034   0.00000   0.00048   0.00034  -3.14125
   D19       -3.14083   0.00193   0.00000   0.00256   0.00257  -3.13826
   D20        0.00054  -0.00019   0.00000  -0.00023  -0.00030   0.00024
   D21       -0.00066  -0.00590   0.00000  -0.00786  -0.00772  -0.00838
   D22        3.14138   0.00275   0.00000   0.00376   0.00324  -3.13856
   D23        3.14116  -0.00378   0.00000  -0.00507  -0.00485   3.13631
   D24        0.00001   0.00487   0.00000   0.00655   0.00611   0.00613
   D25        2.60798   0.04069   0.00000   0.04913   0.04816   2.65614
   D26       -1.58081  -0.00991   0.00000  -0.00297  -0.00144  -1.58226
   D27        0.51358   0.03625   0.00000   0.04651   0.04619   0.55977
   D28       -0.53407   0.03200   0.00000   0.03748   0.03636  -0.49771
   D29        1.56033  -0.01859   0.00000  -0.01462  -0.01325   1.54708
   D30       -2.62846   0.02756   0.00000   0.03486   0.03438  -2.59408
   D31        2.09440   0.00666   0.00000   0.00606   0.00487   2.09927
   D32       -2.09439  -0.02161   0.00000  -0.02441  -0.02490  -2.11930
   D33        0.00000  -0.00101   0.00000   0.00000   0.00000   0.00000
   D34        0.00000  -0.00316   0.00000  -0.00256  -0.00219  -0.00219
   D35        2.09440  -0.03142   0.00000  -0.03303  -0.03196   2.06243
   D36       -2.09439  -0.01082   0.00000  -0.00862  -0.00707  -2.10146
   D37       -2.09440   0.03577   0.00000   0.03912   0.03872  -2.05568
   D38        0.00000   0.00751   0.00000   0.00865   0.00894   0.00894
   D39        2.09439   0.02811   0.00000   0.03306   0.03384   2.12823
   D40        1.01927  -0.00871   0.00000  -0.01193  -0.01207   1.00720
   D41        3.11367  -0.00968   0.00000  -0.01307  -0.01325   3.10042
   D42       -1.07512  -0.02112   0.00000  -0.02655  -0.02676  -1.10189
   D43       -1.07512  -0.01120   0.00000  -0.01295  -0.01255  -1.08767
   D44        1.01927  -0.01216   0.00000  -0.01409  -0.01372   1.00555
   D45        3.11367  -0.02361   0.00000  -0.02757  -0.02724   3.08643
   D46        3.11367   0.01512   0.00000   0.01535   0.01520   3.12886
   D47       -1.07512   0.01416   0.00000   0.01421   0.01402  -1.06110
   D48        1.01927   0.00271   0.00000   0.00074   0.00051   1.01978
         Item               Value     Threshold  Converged?
 Maximum Force            0.232764     0.000450     NO 
 RMS     Force            0.038131     0.000300     NO 
 Maximum Displacement     1.220610     0.001800     NO 
 RMS     Displacement     0.317765     0.001200     NO 
 Predicted change in Energy=-1.142353D-01
 GradGradGradGradGradGradGradGradGradGradGradGradGradGradGradGradGradGrad

                          Input orientation:                          
 ---------------------------------------------------------------------
 Center     Atomic      Atomic             Coordinates (Angstroms)
 Number     Number       Type             X           Y           Z
 ---------------------------------------------------------------------
      1          6           0        2.858295    2.100546    2.761289
      2          6           0        3.140175    3.184110    3.591873
      3          6           0        2.970551    4.484135    3.130592
      4          6           0        2.522572    4.699623    1.832932
      5          6           0        2.243189    3.615869    1.004749
      6          6           0        2.401300    2.302654    1.456193
      7          1           0        3.008367    1.101244    3.142306
      8          1           0        3.497370    3.010492    4.610504
      9          1           0        3.191709    5.332654    3.783418
     10          1           0        2.389866    5.719810    1.463065
     11          1           0        1.891518    3.796148   -0.014770
     12         14           0        1.976302    0.876609    0.181927
     13          1           0        0.953323    1.423748   -0.728109
     14          1           0        3.220451    0.605870   -0.562256
     15          6           0        1.265386   -0.844815    0.812525
     16          1           0        0.306268   -0.975008    0.348740
     17          1           0        1.937115   -1.617390    0.490100
     18          6           0        1.067176   -1.002361    2.329566
     19          1           0        0.409705   -0.239255    2.697420
     20          1           0        0.638251   -1.965636    2.532423
     21          1           0        2.004702   -0.934655    2.825355
 ---------------------------------------------------------------------
                    Distance matrix (angstroms):
                    1          2          3          4          5
     1  C    0.000000
     2  C    1.394073   0.000000
     3  C    2.414639   1.389827   0.000000
     4  C    2.780244   2.402517   1.389619   0.000000
     5  C    2.399997   2.772041   2.408765   1.392288   0.000000
     6  C    1.397485   2.425702   2.808294   2.429424   1.397617
     7  H    1.079954   2.134904   3.383123   3.859895   3.387917
     8  H    2.157780   1.093316   2.153904   3.393862   3.865348
     9  H    3.406234   2.157681   1.093195   2.157050   3.401182
    10  H    3.873485   3.394785   2.155165   1.093250   2.158272
    11  H    3.393556   3.865438   3.395724   2.151395   1.093431
    12  Si   2.988150   4.278656   4.764179   4.199960   2.872596
    13  H    4.032725   5.152034   5.322101   4.444416   3.077653
    14  H    3.662126   4.889842   5.361019   4.794036   3.531380
    15  C    3.874299   5.241360   6.056297   5.776032   4.570640
    16  H    4.668218   5.987253   6.681268   6.270268   5.025749
    17  H    4.453080   5.841468   6.728209   6.484644   5.267404
    18  C    3.608674   4.839141   5.862263   5.905713   4.946332
    19  H    3.387380   4.469334   5.390360   5.440961   4.592252
    20  H    4.638407   5.822538   6.884547   6.961727   6.005232
    21  H    3.153597   4.340631   5.512651   5.744405   4.907010
                    6          7          8          9         10
     6  C    0.000000
     7  H    2.157520   0.000000
     8  H    3.413514   2.457633   0.000000
     9  H    3.901489   4.283628   2.483936   0.000000
    10  H    3.417182   4.953135   4.298063   2.485333   0.000000
    11  H    2.157344   4.298486   4.958747   4.298555   2.476454
    12  Si   1.959077   3.143161   5.145814   5.856986   5.026823
    13  H    2.764108   4.394010   6.122967   6.375249   5.032003
    14  H    2.761200   3.743548   5.711072   6.420919   5.562750
    15  C    3.407517   3.500430   5.854041   7.120256   6.691933
    16  H    4.044586   4.406378   6.650562   7.740114   7.099555
    17  H    4.063933   3.946232   6.389790   7.792500   7.415265
    18  C    3.669577   2.975554   5.216466   6.838110   6.905644
    19  H    3.459537   2.957686   4.873851   6.321796   6.399619
    20  H    4.741826   3.923667   6.103674   7.832635   7.954733
    21  H    3.537240   2.291874   4.580284   6.450274   6.803389
                   11         12         13         14         15
    11  H    0.000000
    12  Si   2.927385   0.000000
    13  H    2.649027   1.474453   0.000000
    14  H    3.499097   1.474794   2.415844   0.000000
    15  C    4.755523   1.966305   2.759948   2.795852   0.000000
    16  H    5.040742   2.499065   2.707824   3.438248   1.073291
    17  H    5.437220   2.513272   3.420584   2.774398   1.073336
    18  C    5.403808   2.994895   3.904913   3.947865   1.538026
    19  H    5.082934   3.166557   3.846472   4.386344   2.156785
    20  H    6.423163   3.923464   4.713626   4.780945   2.146529
    21  H    5.519023   3.204558   4.392558   3.914993   2.146193
                   16         17         18         19         20
    16  H    0.000000
    17  H    1.758494   0.000000
    18  C    2.122122   2.125722   0.000000
    19  H    2.463397   3.017367   1.072341   0.000000
    20  H    2.420750   2.445283   1.073791   1.749243   0.000000
    21  H    3.003319   2.433950   1.062707   1.744697   1.736641
                   21
    21  H    0.000000
 Stoichiometry    C8H12Si
 Framework group  C1[X(C8H12Si)]
 Deg. of freedom    57
 Full point group                 C1      NOp   1
 Largest Abelian subgroup         C1      NOp   1
 Largest concise Abelian subgroup C1      NOp   1
                         Standard orientation:                         
 ---------------------------------------------------------------------
 Center     Atomic      Atomic             Coordinates (Angstroms)
 Number     Number       Type             X           Y           Z
 ---------------------------------------------------------------------
      1          6           0        0.712606    0.991036    0.411396
      2          6           0        2.027360    1.437198    0.285699
      3          6           0        3.030108    0.561341   -0.113035
      4          6           0        2.716479   -0.765534   -0.381517
      5          6           0        1.402962   -1.209178   -0.253776
      6          6           0        0.382032   -0.339125    0.138709
      7          1           0       -0.044836    1.690699    0.732416
      8          1           0        2.271022    2.480665    0.502825
      9          1           0        4.060501    0.913022   -0.211456
     10          1           0        3.501154   -1.460240   -0.692747
     11          1           0        1.166661   -2.255247   -0.467068
     12         14           0       -1.417149   -1.100960    0.282018
     13          1           0       -1.473557   -2.217294   -0.679558
     14          1           0       -1.537603   -1.614910    1.659103
     15          6           0       -3.000488    0.004523   -0.088522
     16          1           0       -3.525066   -0.463648   -0.899439
     17          1           0       -3.613941    0.008242    0.792223
     18          6           0       -2.749404    1.468344   -0.488156
     19          1           0       -2.127126    1.511599   -1.360404
     20          1           0       -3.688634    1.943385   -0.700779
     21          1           0       -2.278416    1.985547    0.311855
 ---------------------------------------------------------------------
 Rotational constants (GHZ):      2.7948646      0.7857069      0.6442049
 Standard basis: 6-31G (6D, 7F)
 There are   109 symmetry adapted cartesian basis functions of A   symmetry.
 There are   109 symmetry adapted basis functions of A   symmetry.
   109 basis functions,   270 primitive gaussians,   109 cartesian basis functions
    37 alpha electrons       37 beta electrons
       nuclear repulsion energy       477.6454605578 Hartrees.
 NAtoms=   21 NActive=   21 NUniq=   21 SFac= 1.00D+00 NAtFMM=   60 NAOKFM=F Big=F
 Integral buffers will be    131072 words long.
 Raffenetti 1 integral format.
 Two-electron integral symmetry is turned on.
 One-electron integrals computed using PRISM.
 NBasis=   109 RedAO= T EigKep=  6.78D-04  NBF=   109
 NBsUse=   109 1.00D-06 EigRej= -1.00D+00 NBFU=   109
 Initial guess from the checkpoint file:  "EtOCSPhenyl_RHF6-31G_CCSiCar_scan_0_180.chk"
 B after Tr=     0.000000    0.000000    0.000000
         Rot=    0.999500    0.011409   -0.014625   -0.025600 Ang=   3.62 deg.
 ExpMin= 7.78D-02 ExpMax= 1.61D+04 ExpMxC= 2.43D+03 IAcc=2 IRadAn=         4 AccDes= 0.00D+00
 Harris functional with IExCor=  205 and IRadAn=       4 diagonalized for initial guess.
 HarFok:  IExCor=  205 AccDes= 0.00D+00 IRadAn=         4 IDoV= 1 UseB2=F ITyADJ=14
 ICtDFT=  3500011 ScaDFX=  1.000000  1.000000  1.000000  1.000000
 FoFCou: FMM=F IPFlag=           0 FMFlag=      100000 FMFlg1=           0
         NFxFlg=           0 DoJE=T BraDBF=F KetDBF=T FulRan=T
         wScrn=  0.000000 ICntrl=     500 IOpCl=  0 I1Cent=   200000004 NGrid=           0
         NMat0=    1 NMatS0=      1 NMatT0=    0 NMatD0=    1 NMtDS0=    0 NMtDT0=    0
 Petite list used in FoFCou.
 Keep R1 ints in memory in canonical form, NReq=18932982.
 Requested convergence on RMS density matrix=1.00D-08 within 128 cycles.
 Requested convergence on MAX density matrix=1.00D-06.
 Requested convergence on             energy=1.00D-06.
 No special actions if energy rises.
 SCF Done:  E(RHF) =  -598.691507942     A.U. after   14 cycles
            NFock= 14  Conv=0.66D-08     -V/T= 1.9994
 Calling FoFJK, ICntrl=      2127 FMM=F ISym2X=0 I1Cent= 0 IOpClX= 0 NMat=1 NMatS=1 NMatT=0.
 ***** Axes restored to original set *****
 -------------------------------------------------------------------
 Center     Atomic                   Forces (Hartrees/Bohr)
 Number     Number              X              Y              Z
 -------------------------------------------------------------------
      1        6           0.002144364    0.000166794    0.002347573
      2        6           0.003712368   -0.003465665    0.009513852
      3        6           0.002220414    0.007764619    0.006277581
      4        6          -0.000911937    0.009488381   -0.005554059
      5        6          -0.004081971    0.004974935   -0.007869451
      6        6          -0.006028600   -0.009738474   -0.005795869
      7        1          -0.001271602    0.005506891   -0.002032509
      8        1          -0.004657302    0.001895722   -0.013249068
      9        1          -0.003090796   -0.011250770   -0.008460524
     10        1           0.001677324   -0.013438637    0.004467985
     11        1           0.003731512   -0.000846339    0.013312481
     12       14          -0.001108401   -0.003743421    0.018806413
     13        1          -0.002569598    0.005236507   -0.006860196
     14        1           0.005993658   -0.001801713   -0.006942461
     15        6           0.005858362    0.016523580    0.012898280
     16        1          -0.003914506   -0.002919709   -0.009554177
     17        1           0.002178280   -0.005526538   -0.008604092
     18        6          -0.002942825    0.002925608   -0.016386619
     19        1          -0.004085875    0.003988791    0.007286900
     20        1          -0.003435822   -0.005896522    0.004718691
     21        1           0.010582953    0.000155958    0.011679269
 -------------------------------------------------------------------
 Cartesian Forces:  Max     0.018806413 RMS     0.007330077

 GradGradGradGradGradGradGradGradGradGradGradGradGradGradGradGradGradGrad
 Berny optimization.
 Using GEDIIS/GDIIS optimizer.
 FormGI is forming the generalized inverse of G from B-inverse, IUseBI=4.
 Internal  Forces:  Max     0.014795050 RMS     0.004607161
 Search for a local minimum.
 Step number   2 out of a maximum of  115 on scan point     1 out of    19
 All quantities printed in internal units (Hartrees-Bohrs-Radians)
 Mixed Optimization -- RFO/linear search
 Update second derivatives using D2CorX and points    1    2
 DE= -3.61D-02 DEPred=-1.14D-01 R= 3.16D-01
 Trust test= 3.16D-01 RLast= 3.24D-01 DXMaxT set to 3.00D-01
 ITU=  0  0
 Use linear search instead of GDIIS.
     Eigenvalues ---    0.00237   0.00247   0.01294   0.01373   0.02152
     Eigenvalues ---    0.02153   0.02154   0.02155   0.02155   0.02156
     Eigenvalues ---    0.02156   0.02164   0.03296   0.04796   0.05350
     Eigenvalues ---    0.05625   0.05743   0.08830   0.10334   0.11644
     Eigenvalues ---    0.13289   0.15983   0.16000   0.16000   0.16000
     Eigenvalues ---    0.16000   0.16000   0.16000   0.16023   0.17589
     Eigenvalues ---    0.17755   0.18237   0.18253   0.22000   0.22000
     Eigenvalues ---    0.22173   0.23431   0.24614   0.28504   0.33311
     Eigenvalues ---    0.33606   0.33711   0.33718   0.33719   0.37050
     Eigenvalues ---    0.37162   0.37230   0.37230   0.37230   0.42029
     Eigenvalues ---    0.42235   0.46395   0.46446   0.46461   0.46485
     Eigenvalues ---    1.251361000.000001000.000001000.000001000.00000
     Eigenvalues --- 1000.000001000.000001000.000001000.000001000.00000
     Eigenvalues --- 1000.000001000.000001000.000001000.000001000.00000
     Eigenvalues --- 1000.000001000.000001000.000001000.000001000.00000
     Eigenvalues --- 1000.000001000.000001000.000001000.000001000.00000
     Eigenvalues --- 1000.000001000.000001000.000001000.000001000.00000
     Eigenvalues --- 1000.000001000.000001000.000001000.000001000.00000
     Eigenvalues --- 1000.000001000.000001000.000001000.000001000.00000
     Eigenvalues --- 1000.000001000.000001000.000001000.000001000.00000
     Eigenvalues --- 1000.000001000.000001000.000001000.000001000.00000
 RFO step:  Lambda=-6.82627057D-03 EMin= 2.37040829D-03
 Quartic linear search produced a step of -0.11727.
 Iteration  1 RMS(Cart)=  0.04707808 RMS(Int)=  0.00047696
 Iteration  2 RMS(Cart)=  0.00056304 RMS(Int)=  0.00015340
 Iteration  3 RMS(Cart)=  0.00000022 RMS(Int)=  0.00015340
 Iteration  1 RMS(Cart)=  0.00000148 RMS(Int)=  0.00000085
 Iteration  2 RMS(Cart)=  0.00000096 RMS(Int)=  0.00000094
 Variable       Old X    -DE/DX   Delta X   Delta X   Delta X     New X
                                 (Linear)    (Quad)   (Total)
    R1        2.63442  -0.00598   0.00024  -0.01193  -0.01168   2.62274
    R2        2.64086  -0.00272  -0.00059  -0.00364  -0.00424   2.63663
    R3        2.04082  -0.00599   0.00436  -0.02473  -0.02038   2.02044
    R4        2.62639  -0.00347   0.00108  -0.00930  -0.00820   2.61820
    R5        2.06607  -0.01417   0.00140  -0.03936  -0.03795   2.02811
    R6        2.62600  -0.00290   0.00129  -0.00860  -0.00730   2.61870
    R7        2.06584  -0.01441   0.00144  -0.04005  -0.03862   2.02722
    R8        2.63104  -0.00541   0.00056  -0.01134  -0.01078   2.62026
    R9        2.06594  -0.01426   0.00143  -0.03963  -0.03821   2.02774
   R10        2.64111  -0.00028  -0.00055   0.00099   0.00042   2.64153
   R11        2.06629  -0.01375   0.00140  -0.03830  -0.03690   2.02939
   R12        3.70212  -0.01251  -0.00423  -0.05518  -0.05941   3.64271
   R13        2.78631   0.00796  -0.00099   0.03838   0.03739   2.82371
   R14        2.78696   0.00889  -0.00106   0.04281   0.04175   2.82871
   R15        3.71578  -0.00898  -0.00583  -0.03614  -0.04197   3.67381
   R16        2.02823   0.00798  -0.00073   0.02021   0.01948   2.04771
   R17        2.02831   0.00793  -0.00074   0.02011   0.01937   2.04768
   R18        2.90645   0.00706   0.00044   0.02048   0.02092   2.92737
   R19        2.02643   0.00784  -0.00052   0.01942   0.01890   2.04533
   R20        2.02917   0.00755  -0.00084   0.01947   0.01863   2.04780
   R21        2.00823   0.01480   0.00162   0.03080   0.03242   2.04064
    A1        2.10612   0.00114  -0.00138   0.00646   0.00503   2.11115
    A2        2.07250  -0.00049   0.00256  -0.00476  -0.00219   2.07030
    A3        2.10453  -0.00064  -0.00118  -0.00162  -0.00279   2.10173
    A4        2.09974  -0.00032  -0.00061  -0.00091  -0.00153   2.09821
    A5        2.09177  -0.00021   0.00027  -0.00146  -0.00119   2.09058
    A6        2.09167   0.00053   0.00034   0.00238   0.00272   2.09439
    A7        2.08786   0.00055   0.00075   0.00053   0.00128   2.08914
    A8        2.09802  -0.00038  -0.00040  -0.00079  -0.00120   2.09682
    A9        2.09729  -0.00017  -0.00035   0.00029  -0.00008   2.09721
   A10        2.09377  -0.00005   0.00006  -0.00001   0.00001   2.09378
   A11        2.09413   0.00042  -0.00001   0.00205   0.00205   2.09618
   A12        2.09529  -0.00037  -0.00005  -0.00203  -0.00208   2.09321
   A13        2.11362  -0.00006  -0.00224   0.00412   0.00181   2.11543
   A14        2.08384  -0.00146   0.00126  -0.01008  -0.00880   2.07504
   A15        2.08573   0.00152   0.00098   0.00598   0.00699   2.09272
   A16        2.06524  -0.00126   0.00342  -0.01002  -0.00667   2.05857
   A17        2.18109  -0.00250  -0.01015   0.00948  -0.00064   2.18045
   A18        2.03680   0.00376   0.00674   0.00060   0.00736   2.04416
   A19        1.85652  -0.00011   0.00635  -0.01569  -0.00934   1.84718
   A20        1.85337   0.00441   0.00671   0.00409   0.01105   1.86442
   A21        2.10261  -0.00861  -0.02251   0.00250  -0.02005   2.08256
   A22        1.91982  -0.00350  -0.00108  -0.01074  -0.01145   1.90837
   A23        1.84623   0.00574   0.00755   0.02318   0.03060   1.87683
   A24        1.88191   0.00184   0.00337  -0.00521  -0.00176   1.88015
   A25        1.86576  -0.00243   0.00526  -0.02702  -0.02232   1.84344
   A26        1.88340  -0.00168   0.00319  -0.02386  -0.02105   1.86235
   A27        2.04047   0.00021  -0.01523   0.03100   0.01569   2.05616
   A28        1.91999  -0.00290  -0.00110  -0.03104  -0.03281   1.88718
   A29        1.87405   0.00345   0.00429   0.02556   0.02986   1.90391
   A30        1.87887   0.00303   0.00373   0.02137   0.02528   1.90414
   A31        1.92248   0.00506  -0.00139   0.02647   0.02480   1.94727
   A32        1.90679   0.00264   0.00045   0.01428   0.01449   1.92128
   A33        1.91766   0.00601  -0.00082   0.03363   0.03243   1.95009
   A34        1.90569  -0.00419   0.00058  -0.02472  -0.02427   1.88142
   A35        1.91295  -0.00540  -0.00027  -0.02987  -0.03053   1.88242
   A36        1.89802  -0.00428   0.00148  -0.02061  -0.01944   1.87858
    D1       -0.00077   0.00002   0.00016   0.00265   0.00286   0.00209
    D2       -3.14120   0.00002  -0.00014  -0.00024  -0.00034  -3.14154
    D3        3.13115  -0.00002   0.00128   0.01150   0.01281  -3.13923
    D4       -0.00929  -0.00002   0.00098   0.00861   0.00961   0.00032
    D5        0.00703  -0.00030  -0.00079  -0.01795  -0.01872  -0.01169
    D6        3.13618  -0.00061   0.00061  -0.01250  -0.01188   3.12430
    D7       -3.12471  -0.00026  -0.00194  -0.02695  -0.02886   3.12962
    D8        0.00444  -0.00057  -0.00053  -0.02150  -0.02201  -0.01757
    D9       -0.00433   0.00009   0.00039   0.00673   0.00714   0.00281
   D10        3.14118  -0.00007  -0.00003  -0.00233  -0.00237   3.13880
   D11        3.13610   0.00009   0.00069   0.00961   0.01035  -3.13673
   D12       -0.00158  -0.00007   0.00027   0.00055   0.00083  -0.00074
   D13        0.00301   0.00008  -0.00028  -0.00047  -0.00078   0.00223
   D14       -3.13848  -0.00013  -0.00036  -0.00790  -0.00831   3.13639
   D15        3.14069   0.00023   0.00014   0.00859   0.00874  -3.13376
   D16       -0.00080   0.00002   0.00006   0.00115   0.00120   0.00040
   D17        0.00344  -0.00036  -0.00038  -0.01535  -0.01576  -0.01232
   D18       -3.14125  -0.00028  -0.00004  -0.00959  -0.00967   3.13227
   D19       -3.13826  -0.00015  -0.00030  -0.00791  -0.00824   3.13669
   D20        0.00024  -0.00007   0.00003  -0.00215  -0.00215  -0.00191
   D21       -0.00838   0.00047   0.00091   0.02435   0.02521   0.01683
   D22       -3.13856   0.00080  -0.00038   0.01928   0.01896  -3.11961
   D23        3.13631   0.00039   0.00057   0.01861   0.01909  -3.12778
   D24        0.00613   0.00072  -0.00072   0.01354   0.01283   0.01896
   D25        2.65614   0.00223  -0.00565  -0.01518  -0.02065   2.63549
   D26       -1.58226   0.00028   0.00017  -0.03302  -0.03300  -1.61526
   D27        0.55977   0.00048  -0.00542  -0.03471  -0.04017   0.51960
   D28       -0.49771   0.00190  -0.00426  -0.00988  -0.01395  -0.51166
   D29        1.54708  -0.00006   0.00155  -0.02772  -0.02630   1.52078
   D30       -2.59408   0.00014  -0.00403  -0.02941  -0.03347  -2.62755
   D31        2.09927   0.00199  -0.00057   0.03253   0.03172   2.13099
   D32       -2.11930  -0.00357   0.00292  -0.03058  -0.02732  -2.14661
   D33        0.00000  -0.00076   0.00000   0.00000   0.00001   0.00000
   D34       -0.00219   0.00307   0.00026   0.03224   0.03220   0.03001
   D35        2.06243  -0.00249   0.00375  -0.03087  -0.02684   2.03559
   D36       -2.10146   0.00032   0.00083  -0.00029   0.00048  -2.10098
   D37       -2.05568   0.00330  -0.00454   0.03538   0.03055  -2.02513
   D38        0.00894  -0.00227  -0.00105  -0.02773  -0.02849  -0.01955
   D39        2.12823   0.00054  -0.00397   0.00285  -0.00117   2.12707
   D40        1.00720  -0.00016   0.00142   0.01820   0.01971   1.02690
   D41        3.10042  -0.00056   0.00155   0.01298   0.01451   3.11492
   D42       -1.10189  -0.00056   0.00314   0.01675   0.01990  -1.08199
   D43       -1.08767   0.00020   0.00147   0.01338   0.01480  -1.07288
   D44        1.00555  -0.00020   0.00161   0.00815   0.00960   1.01514
   D45        3.08643  -0.00020   0.00319   0.01193   0.01499   3.10142
   D46        3.12886   0.00018  -0.00178   0.02499   0.02337  -3.13096
   D47       -1.06110  -0.00022  -0.00164   0.01977   0.01817  -1.04294
   D48        1.01978  -0.00022  -0.00006   0.02354   0.02356   1.04334
         Item               Value     Threshold  Converged?
 Maximum Force            0.014795     0.000450     NO 
 RMS     Force            0.004628     0.000300     NO 
 Maximum Displacement     0.183915     0.001800     NO 
 RMS     Displacement     0.047098     0.001200     NO 
 Predicted change in Energy=-3.362296D-03
 GradGradGradGradGradGradGradGradGradGradGradGradGradGradGradGradGradGrad

                          Input orientation:                          
 ---------------------------------------------------------------------
 Center     Atomic      Atomic             Coordinates (Angstroms)
 Number     Number       Type             X           Y           Z
 ---------------------------------------------------------------------
      1          6           0        2.805532    2.080714    2.748178
      2          6           0        3.102019    3.150127    3.581666
      3          6           0        2.974145    4.450232    3.120194
      4          6           0        2.545277    4.679080    1.822494
      5          6           0        2.243996    3.608978    0.993811
      6          6           0        2.377916    2.289925    1.436661
      7          1           0        2.911043    1.088163    3.131372
      8          1           0        3.429480    2.967415    4.587257
      9          1           0        3.201198    5.275921    3.766336
     10          1           0        2.439372    5.683431    1.459920
     11          1           0        1.904852    3.806295   -0.005849
     12         14           0        1.962477    0.892926    0.175075
     13          1           0        0.931356    1.465467   -0.742390
     14          1           0        3.215613    0.619344   -0.596596
     15          6           0        1.285781   -0.808788    0.827581
     16          1           0        0.328038   -0.948155    0.340245
     17          1           0        1.962985   -1.572986    0.464879
     18          6           0        1.105025   -0.976124    2.356968
     19          1           0        0.425299   -0.236836    2.760569
     20          1           0        0.698444   -1.955853    2.578588
     21          1           0        2.043742   -0.884884    2.882883
 ---------------------------------------------------------------------
                    Distance matrix (angstroms):
                    1          2          3          4          5
     1  C    0.000000
     2  C    1.387894   0.000000
     3  C    2.404463   1.385490   0.000000
     4  C    2.770583   2.396319   1.385758   0.000000
     5  C    2.393474   2.764732   2.400487   1.386581   0.000000
     6  C    1.395243   2.421843   2.802981   2.425889   1.397837
     7  H    1.069172   2.119181   3.362680   3.839483   3.371739
     8  H    2.134891   1.073232   2.135029   3.369796   3.837947
     9  H    3.376765   2.136104   1.072760   2.136580   3.373698
    10  H    3.843598   3.370243   2.136182   1.073032   2.135132
    11  H    3.372465   3.838494   3.366035   2.124791   1.073905
    12  Si   2.956762   4.242448   4.727750   4.169965   2.850704
    13  H    4.009381   5.123213   5.291632   4.417089   3.054841
    14  H    3.673049   4.886271   5.343084   4.773134   3.522973
    15  C    3.787818   5.153320   5.980296   5.717768   4.523545
    16  H    4.594581   5.915885   6.623638   6.227277   4.986532
    17  H    4.390087   5.772309   6.659752   6.424213   5.216462
    18  C    3.519806   4.744872   5.789772   5.860147   4.917175
    19  H    3.322154   4.394377   5.347388   5.435120   4.606450
    20  H    4.556584   5.731873   6.819830   6.928550   5.988956
    21  H    3.064840   4.229605   5.420833   5.686269   4.878881
                    6          7          8          9         10
     6  C    0.000000
     7  H    2.144879   0.000000
     8  H    3.389843   2.433098   0.000000
     9  H    3.875739   4.245549   2.460737   0.000000
    10  H    3.394142   4.912506   4.258790   2.462925   0.000000
    11  H    2.145694   4.271162   4.911704   4.250847   2.440867
    12  Si   1.927639   3.110882   5.091458   5.800192   4.982689
    13  H    2.742358   4.366641   6.074669   6.324583   4.991543
    14  H    2.761650   3.769655   5.694867   6.381152   5.520578
    15  C    3.341521   3.398140   5.743720   7.023446   6.624163
    16  H    3.986137   4.313803   6.556504   7.663698   7.049066
    17  H    4.004823   3.884676   6.305541   7.703266   7.339798
    18  C    3.624126   2.850032   5.092031   6.743020   6.850901
    19  H    3.456873   2.841134   4.757007   6.253613   6.387311
    20  H    4.706512   3.803577   5.977614   7.744229   7.914601
    21  H    3.504660   2.169533   4.434565   6.330538   6.732318
                   11         12         13         14         15
    11  H    0.000000
    12  Si   2.919550   0.000000
    13  H    2.640011   1.494241   0.000000
    14  H    3.496245   1.496887   2.440288   0.000000
    15  C    4.730417   1.944097   2.786155   2.791432   0.000000
    16  H    5.021047   2.467439   2.713239   3.416550   1.083601
    17  H    5.400151   2.482883   3.428404   2.738999   1.083585
    18  C    5.393900   2.998204   3.949373   3.965304   1.549096
    19  H    5.117525   3.213107   3.927423   4.448534   2.191803
    20  H    6.429392   3.935759   4.773738   4.800997   2.174109
    21  H    5.511009   3.240283   4.461407   3.967714   2.191931
                   16         17         18         19         20
    16  H    0.000000
    17  H    1.754708   0.000000
    18  C    2.161402   2.161559   0.000000
    19  H    2.524559   3.069196   1.082343   0.000000
    20  H    2.482506   2.492672   1.083648   1.750069   0.000000
    21  H    3.068004   2.515302   1.079862   1.747651   1.746253
                   21
    21  H    0.000000
 Stoichiometry    C8H12Si
 Framework group  C1[X(C8H12Si)]
 Deg. of freedom    57
 Full point group                 C1      NOp   1
 Largest Abelian subgroup         C1      NOp   1
 Largest concise Abelian subgroup C1      NOp   1
                         Standard orientation:                         
 ---------------------------------------------------------------------
 Center     Atomic      Atomic             Coordinates (Angstroms)
 Number     Number       Type             X           Y           Z
 ---------------------------------------------------------------------
      1          6           0        0.676070    0.983651    0.378564
      2          6           0        1.981627    1.442958    0.274599
      3          6           0        2.999150    0.575591   -0.088587
      4          6           0        2.707369   -0.753392   -0.351255
      5          6           0        1.401262   -1.208291   -0.252469
      6          6           0        0.362615   -0.351879    0.123986
      7          1           0       -0.089465    1.675525    0.658552
      8          1           0        2.201458    2.474187    0.474770
      9          1           0        4.007414    0.932544   -0.171052
     10          1           0        3.489653   -1.429694   -0.637690
     11          1           0        1.193285   -2.239526   -0.468276
     12         14           0       -1.401525   -1.116816    0.259910
     13          1           0       -1.434511   -2.242726   -0.721923
     14          1           0       -1.530501   -1.664648    1.646963
     15          6           0       -2.953677    0.003112   -0.080822
     16          1           0       -3.490690   -0.480315   -0.888354
     17          1           0       -3.571004   -0.041181    0.808618
     18          6           0       -2.706896    1.486398   -0.453190
     19          1           0       -2.101015    1.577174   -1.345453
     20          1           0       -3.650568    1.984708   -0.641506
     21          1           0       -2.207827    2.020480    0.341661
 ---------------------------------------------------------------------
 Rotational constants (GHZ):      2.7873444      0.8072687      0.6551327
 Standard basis: 6-31G (6D, 7F)
 There are   109 symmetry adapted cartesian basis functions of A   symmetry.
 There are   109 symmetry adapted basis functions of A   symmetry.
   109 basis functions,   270 primitive gaussians,   109 cartesian basis functions
    37 alpha electrons       37 beta electrons
       nuclear repulsion energy       480.3782718811 Hartrees.
 NAtoms=   21 NActive=   21 NUniq=   21 SFac= 1.00D+00 NAtFMM=   60 NAOKFM=F Big=F
 Integral buffers will be    131072 words long.
 Raffenetti 1 integral format.
 Two-electron integral symmetry is turned on.
 One-electron integrals computed using PRISM.
 NBasis=   109 RedAO= T EigKep=  6.45D-04  NBF=   109
 NBsUse=   109 1.00D-06 EigRej= -1.00D+00 NBFU=   109
 Initial guess from the checkpoint file:  "EtOCSPhenyl_RHF6-31G_CCSiCar_scan_0_180.chk"
 B after Tr=     0.000000    0.000000    0.000000
         Rot=    0.999992   -0.003602    0.000908   -0.001526 Ang=  -0.46 deg.
[...]
      4          6           0        2.417540    4.516020    2.827324
      5          6           0        1.821572    3.529239    2.054694
      6          6           0        2.537819    2.400487    1.650322
      7          1           0        4.459133    1.448372    1.728446
      8          1           0        5.506696    3.184698    3.093303
      9          1           0        4.209781    5.155870    3.801622
     10          1           0        1.850353    5.376265    3.128002
     11          1           0        0.793783    3.645339    1.763221
     12         14           0        1.703531    1.024978    0.618621
     13          1           0        0.645391    1.638539   -0.243960
     14          1           0        2.731060    0.388655   -0.264238
     15          6           0        0.900661   -0.332635    1.718029
     16          1           0        1.669902   -0.750008    2.362204
     17          1           0        0.179169    0.143332    2.376665
     18          6           0        0.222703   -1.450903    0.910758
     19          1           0        0.931994   -1.960759    0.267297
     20          1           0       -0.216740   -2.194734    1.566823
     21          1           0       -0.570391   -1.060407    0.281786
 ---------------------------------------------------------------------
                    Distance matrix (angstroms):
                    1          2          3          4          5
     1  C    0.000000
     2  C    1.387759   0.000000
     3  C    2.403462   1.387469   0.000000
     4  C    2.770798   2.400648   1.387470   0.000000
     5  C    2.395793   2.770801   2.403463   1.387759   0.000000
     6  C    1.396641   2.423900   2.801735   2.423898   1.396642
     7  H    1.074609   2.127668   3.370334   3.845270   3.375377
     8  H    2.136428   1.073373   2.137649   3.374322   3.844159
     9  H    3.376569   2.137939   1.073273   2.137941   3.376571
    10  H    3.844157   3.374322   2.137650   1.073373   2.136428
    11  H    3.375376   3.845272   3.370338   2.127672   1.074609
    12  Si   2.889239   4.192338   4.712685   4.192321   2.889214
    13  H    4.008555   5.166388   5.394851   4.566530   3.200305
    14  H    3.200509   4.566703   5.394919   5.166352   4.008475
    15  C    3.984201   5.199931   5.713256   5.200088   3.984405
    16  H    3.776708   4.932740   5.609914   5.339134   4.292962
    17  H    4.292688   5.338904   5.609883   4.932931   3.776972
    18  C    5.353993   6.640269   7.199480   6.640385   5.354137
    19  H    5.470707   6.819325   7.544735   7.121043   5.841765
    20  H    6.095436   7.318488   7.860535   7.318642   6.095621
    21  H    5.841641   7.120940   7.544713   6.819387   5.470789
                    6          7          8          9         10
     6  C    0.000000
     7  H    2.145710   0.000000
     8  H    3.392847   2.444391   0.000000
     9  H    3.875008   4.255088   2.463580   0.000000
    10  H    3.392846   4.918621   4.262982   2.463583   0.000000
    11  H    2.145708   4.273483   4.918623   4.255094   2.444396
    12  Si   1.911143   3.000719   5.025187   5.785936   5.025161
    13  H    2.783909   4.297810   6.095918   6.437641   5.176162
    14  H    2.783944   2.842538   5.176397   6.437715   6.095833
    15  C    3.186663   3.979298   5.956388   6.739089   5.956633
    16  H    3.344499   3.607539   5.544132   6.588043   6.176587
    17  H    3.344481   4.521218   6.176247   6.588010   5.544453
    18  C    4.554111   5.198245   7.360223   8.240349   7.360410
    19  H    4.848907   5.118383   7.442441   8.595450   7.928363
    20  H    5.358229   5.929767   8.001634   8.866780   8.001886
    21  H    4.848881   5.803698   7.928211   8.595428   7.442559
                   11         12         13         14         15
    11  H    0.000000
    12  Si   3.000673   0.000000
    13  H    2.842190   1.496717   0.000000
    14  H    4.297629   1.496717   2.431591   0.000000
    15  C    3.979666   1.922605   2.792864   2.792848   0.000000
    16  H    4.521663   2.488330   3.680607   3.053000   1.086689
    17  H    3.608063   2.488312   3.052979   3.680584   1.086690
    18  C    5.198510   2.899687   3.325160   3.325123   1.536828
    19  H    5.803897   3.103760   3.646707   3.006479   2.180916
    20  H    5.930107   3.866920   4.326220   4.326223   2.176893
    21  H    5.118561   3.103709   3.006467   3.646574   2.180927
                   16         17         18         19         20
    16  H    0.000000
    17  H    1.737972   0.000000
    18  C    2.166180   2.166186   0.000000
    19  H    2.529636   3.073008   1.084937   0.000000
    20  H    2.505849   2.505821   1.084812   1.750172   0.000000
    21  H    3.073011   2.529692   1.084938   1.751573   1.750168
                   21
    21  H    0.000000
 Stoichiometry    C8H12Si
 Framework group  C1[X(C8H12Si)]
 Deg. of freedom    57
 Full point group                 C1      NOp   1
 Largest Abelian subgroup         C1      NOp   1
 Largest concise Abelian subgroup C1      NOp   1
                         Standard orientation:                         
 ---------------------------------------------------------------------
 Center     Atomic      Atomic             Coordinates (Angstroms)
 Number     Number       Type             X           Y           Z
 ---------------------------------------------------------------------
      1          6           0        1.195082   -1.197867   -0.138481
      2          6           0        2.538340   -1.200406    0.210125
      3          6           0        3.211705   -0.000139    0.386218
      4          6           0        2.538454    1.200241    0.210448
      5          6           0        1.195197    1.197926   -0.138160
      6          6           0        0.498546    0.000086   -0.312701
      7          1           0        0.691501   -2.136670   -0.279332
      8          1           0        3.056309   -2.131616    0.339300
      9          1           0        4.251121   -0.000226    0.653668
     10          1           0        3.056514    2.131366    0.339870
     11          1           0        0.691704    2.136813   -0.278770
     12         14           0       -1.360639    0.000265   -0.755306
     13          1           0       -1.665448    1.216357   -1.572847
     14          1           0       -1.665531   -1.215234   -1.573698
     15          6           0       -2.486307   -0.000261    0.803310
     16          1           0       -2.235899   -0.869454    1.405550
     17          1           0       -2.235863    0.868519    1.406132
     18          6           0       -3.987250   -0.000127    0.473147
     19          1           0       -4.266022   -0.875744   -0.103628
     20          1           0       -4.586047   -0.000368    1.377724
     21          1           0       -4.265990    0.875829   -0.103130
 ---------------------------------------------------------------------
 Rotational constants (GHZ):      3.7159463      0.6430052      0.6039335

 **********************************************************************

            Population analysis using the SCF density.

 **********************************************************************

 Orbital symmetries:
       Occupied  (A) (A) (A) (A) (A) (A) (A) (A) (A) (A) (A) (A)
                 (A) (A) (A) (A) (A) (A) (A) (A) (A) (A) (A) (A)
                 (A) (A) (A) (A) (A) (A) (A) (A) (A) (A) (A) (A)
                 (A)
       Virtual   (A) (A) (A) (A) (A) (A) (A) (A) (A) (A) (A) (A)
                 (A) (A) (A) (A) (A) (A) (A) (A) (A) (A) (A) (A)
                 (A) (A) (A) (A) (A) (A) (A) (A) (A) (A) (A) (A)
                 (A) (A) (A) (A) (A) (A) (A) (A) (A) (A) (A) (A)
                 (A) (A) (A) (A) (A) (A) (A) (A) (A) (A) (A) (A)
                 (A) (A) (A) (A) (A) (A) (A) (A) (A) (A) (A) (A)
 The electronic state is 1-A.
 Alpha  occ. eigenvalues --  -68.77518 -11.23995 -11.23987 -11.23889 -11.23592
 Alpha  occ. eigenvalues --  -11.23568 -11.23220 -11.21756 -11.21472  -6.13887
 Alpha  occ. eigenvalues --   -4.24441  -4.24385  -4.24313  -1.15657  -1.02537
 Alpha  occ. eigenvalues --   -1.01953  -1.01439  -0.85272  -0.82687  -0.81959
 Alpha  occ. eigenvalues --   -0.72463  -0.67789  -0.62667  -0.62482  -0.60696
 Alpha  occ. eigenvalues --   -0.58963  -0.57510  -0.54066  -0.51580  -0.50194
 Alpha  occ. eigenvalues --   -0.49741  -0.48902  -0.45603  -0.43544  -0.41419
 Alpha  occ. eigenvalues --   -0.33681  -0.33284
 Alpha virt. eigenvalues --    0.12457   0.14382   0.18166   0.19749   0.23270
 Alpha virt. eigenvalues --    0.25062   0.26826   0.28065   0.29363   0.30045
 Alpha virt. eigenvalues --    0.31449   0.31805   0.32779   0.33066   0.33988
 Alpha virt. eigenvalues --    0.34901   0.35789   0.38267   0.40966   0.43430
 Alpha virt. eigenvalues --    0.47686   0.48419   0.51138   0.53762   0.53971
 Alpha virt. eigenvalues --    0.57087   0.71306   0.75359   0.77266   0.78608
 Alpha virt. eigenvalues --    0.78831   0.79025   0.80939   0.84182   0.85693
 Alpha virt. eigenvalues --    0.86482   0.88540   0.88704   0.89748   0.90829
 Alpha virt. eigenvalues --    0.91805   0.91988   0.96364   0.98087   1.07964
 Alpha virt. eigenvalues --    1.08103   1.13839   1.14876   1.15202   1.15888
 Alpha virt. eigenvalues --    1.17760   1.21941   1.21971   1.23477   1.23616
 Alpha virt. eigenvalues --    1.26167   1.27674   1.27818   1.28064   1.29088
 Alpha virt. eigenvalues --    1.30905   1.33578   1.35665   1.39714   1.41055
 Alpha virt. eigenvalues --    1.46011   1.49771   1.50270   1.70383   1.72473
 Alpha virt. eigenvalues --    1.73677   2.16828
          Condensed to atoms (all electrons):
               1          2          3          4          5          6
     1  C    4.982090   0.508459  -0.043169  -0.044225  -0.030273   0.478064
     2  C    0.508459   4.993758   0.509666  -0.051775  -0.044225  -0.057675
     3  C   -0.043169   0.509666   4.987080   0.509668  -0.043169  -0.046342
     4  C   -0.044225  -0.051775   0.509668   4.993763   0.508454  -0.057679
     5  C   -0.030273  -0.044225  -0.043169   0.508454   4.982096   0.478060
     6  C    0.478064  -0.057675  -0.046342  -0.057679   0.478060   5.500482
     7  H    0.378707  -0.025109   0.002755   0.000088   0.002822  -0.025977
     8  H   -0.026220   0.375352  -0.026390   0.002698  -0.000047   0.003869
     9  H    0.002765  -0.024822   0.375450  -0.024822   0.002765  -0.000066
    10  H   -0.000047   0.002698  -0.026390   0.375351  -0.026220   0.003869
    11  H    0.002822   0.000088   0.002755  -0.025109   0.378707  -0.025975
    12  Si  -0.003569   0.002645  -0.001090   0.002646  -0.003565   0.225427
    13  H   -0.001768  -0.000018  -0.000007   0.000358   0.008222  -0.040310
    14  H    0.008217   0.000357  -0.000007  -0.000018  -0.001768  -0.040301
    15  C   -0.000784   0.000013  -0.000004   0.000013  -0.000786  -0.028923
    16  H    0.000170   0.000003   0.000000   0.000003  -0.000040   0.000256
    17  H   -0.000040   0.000003   0.000000   0.000003   0.000170   0.000256
    18  C    0.000006   0.000000   0.000000   0.000000   0.000006   0.001218
    19  H    0.000001   0.000000   0.000000   0.000000   0.000000  -0.000036
    20  H    0.000000   0.000000   0.000000   0.000000   0.000000  -0.000031
    21  H    0.000000   0.000000   0.000000   0.000000   0.000001  -0.000036
               7          8          9         10         11         12
     1  C    0.378707  -0.026220   0.002765  -0.000047   0.002822  -0.003569
     2  C   -0.025109   0.375352  -0.024822   0.002698   0.000088   0.002645
     3  C    0.002755  -0.026390   0.375450  -0.026390   0.002755  -0.001090
     4  C    0.000088   0.002698  -0.024822   0.375351  -0.025109   0.002646
     5  C    0.002822  -0.000047   0.002765  -0.026220   0.378707  -0.003565
     6  C   -0.025977   0.003869  -0.000066   0.003869  -0.025975   0.225427
     7  H    0.471612  -0.000426  -0.000117   0.000006  -0.000106   0.000832
     8  H   -0.000426   0.472042  -0.000542  -0.000108   0.000006  -0.000071
     9  H   -0.000117  -0.000542   0.468573  -0.000542  -0.000117   0.000001
    10  H    0.000006  -0.000108  -0.000542   0.472043  -0.000426  -0.000071
    11  H   -0.000106   0.000006  -0.000117  -0.000426   0.471607   0.000830
    12  Si   0.000832  -0.000071   0.000001  -0.000071   0.000830  11.654628
    13  H   -0.000045   0.000000   0.000000   0.000000  -0.000171   0.382927
    14  H   -0.000172   0.000000   0.000000   0.000000  -0.000045   0.382923
    15  C   -0.000095   0.000001   0.000000   0.000001  -0.000095   0.303431
    16  H   -0.000048   0.000000   0.000000   0.000000  -0.000003  -0.019199
    17  H   -0.000003   0.000000   0.000000   0.000000  -0.000048  -0.019199
    18  C    0.000004   0.000000   0.000000   0.000000   0.000004  -0.028681
    19  H   -0.000001   0.000000   0.000000   0.000000   0.000000  -0.001477
    20  H    0.000000   0.000000   0.000000   0.000000   0.000000   0.003228
    21  H    0.000000   0.000000   0.000000   0.000000  -0.000001  -0.001477
              13         14         15         16         17         18
     1  C   -0.001768   0.008217  -0.000784   0.000170  -0.000040   0.000006
     2  C   -0.000018   0.000357   0.000013   0.000003   0.000003   0.000000
     3  C   -0.000007  -0.000007  -0.000004   0.000000   0.000000   0.000000
     4  C    0.000358  -0.000018   0.000013   0.000003   0.000003   0.000000
     5  C    0.008222  -0.001768  -0.000786  -0.000040   0.000170   0.000006
     6  C   -0.040310  -0.040301  -0.028923   0.000256   0.000256   0.001218
     7  H   -0.000045  -0.000172  -0.000095  -0.000048  -0.000003   0.000004
     8  H    0.000000   0.000000   0.000001   0.000000   0.000000   0.000000
     9  H    0.000000   0.000000   0.000000   0.000000   0.000000   0.000000
    10  H    0.000000   0.000000   0.000001   0.000000   0.000000   0.000000
    11  H   -0.000171  -0.000045  -0.000095  -0.000003  -0.000048   0.000004
    12  Si   0.382927   0.382923   0.303431  -0.019199  -0.019199  -0.028681
    13  H    0.921078  -0.026543  -0.032563   0.000739  -0.001036   0.000877
    14  H   -0.026543   0.921081  -0.032568  -0.001036   0.000739   0.000878
    15  C   -0.032563  -0.032568   5.627627   0.377456   0.377454   0.235711
    16  H    0.000739  -0.001036   0.377456   0.531015  -0.026740  -0.037238
    17  H   -0.001036   0.000739   0.377454  -0.026740   0.531014  -0.037238
    18  C    0.000877   0.000878   0.235711  -0.037238  -0.037238   5.132767
    19  H   -0.000098   0.001154  -0.045312  -0.002430   0.003995   0.391185
    20  H   -0.000036  -0.000036  -0.040697  -0.004218  -0.004219   0.393118
    21  H    0.001154  -0.000098  -0.045311   0.003995  -0.002430   0.391185
              19         20         21
     1  C    0.000001   0.000000   0.000000
     2  C    0.000000   0.000000   0.000000
     3  C    0.000000   0.000000   0.000000
     4  C    0.000000   0.000000   0.000000
     5  C    0.000000   0.000000   0.000001
     6  C   -0.000036  -0.000031  -0.000036
     7  H   -0.000001   0.000000   0.000000
     8  H    0.000000   0.000000   0.000000
     9  H    0.000000   0.000000   0.000000
    10  H    0.000000   0.000000   0.000000
    11  H    0.000000   0.000000  -0.000001
    12  Si  -0.001477   0.003228  -0.001477
    13  H   -0.000098  -0.000036   0.001154
    14  H    0.001154  -0.000036  -0.000098
    15  C   -0.045312  -0.040697  -0.045311
    16  H   -0.002430  -0.004218   0.003995
    17  H    0.003995  -0.004219  -0.002430
    18  C    0.391185   0.393118   0.391185
    19  H    0.561432  -0.031524  -0.031711
    20  H   -0.031524   0.556708  -0.031525
    21  H   -0.031711  -0.031525   0.561432
 Mulliken charges:
               1
     1  C   -0.211206
     2  C   -0.189417
     3  C   -0.200805
     4  C   -0.189415
     5  C   -0.211211
     6  C   -0.368150
     7  H    0.195274
     8  H    0.199836
     9  H    0.201473
    10  H    0.199836
    11  H    0.195278
    12  Si   1.118881
    13  H   -0.212760
    14  H   -0.212757
    15  C   -0.694567
    16  H    0.177316
    17  H    0.177318
    18  C   -0.443801
    19  H    0.154822
    20  H    0.159233
    21  H    0.154821
 Sum of Mulliken charges =   0.00000
 Mulliken charges with hydrogens summed into heavy atoms:
               1
     1  C   -0.015932
     2  C    0.010420
     3  C    0.000668
     4  C    0.010420
     5  C   -0.015933
     6  C   -0.368150
    12  Si   0.693365
    15  C   -0.339933
    18  C    0.025075
 Electronic spatial extent (au):  <R**2>=           1971.7621
 Charge=              0.0000 electrons
 Dipole moment (field-independent basis, Debye):
    X=              0.4210    Y=             -0.0003    Z=              0.7819  Tot=              0.8880
 Quadrupole moment (field-independent basis, Debye-Ang):
   XX=            -60.0099   YY=            -60.4581   ZZ=            -68.8427
   XY=              0.0002   XZ=              0.5842   YZ=              0.0011
 Traceless Quadrupole moment (field-independent basis, Debye-Ang):
   XX=              3.0936   YY=              2.6455   ZZ=             -5.7392
   XY=              0.0002   XZ=              0.5842   YZ=              0.0011
 Octapole moment (field-independent basis, Debye-Ang**2):
  XXX=             25.1475  YYY=             -0.0053  ZZZ=              5.8411  XYY=             10.4425
  XXY=             -0.0020  XXZ=             11.1950  XZZ=             -3.3411  YZZ=              0.0013
  YYZ=              4.6938  XYZ=              0.0014
 Hexadecapole moment (field-independent basis, Debye-Ang**3):
 XXXX=          -2140.8105 YYYY=           -334.0144 ZZZZ=           -228.9863 XXXY=             -0.0031
 XXXZ=             25.9907 YYYX=              0.0056 YYYZ=              0.0109 ZZZX=            -14.5484
 ZZZY=             -0.0027 XXYY=           -412.6216 XXZZ=           -427.9031 YYZZ=           -106.4000
 XXYZ=              0.0049 YYXZ=             -2.6227 ZZXY=              0.0005
 N-N= 4.747085990640D+02 E-N=-2.359679133012D+03  KE= 5.991783171509D+02
 1\1\GINC-CORN03\Scan\RHF\6-31G\C8H12Si1\JOEBURG\07-Sep-2016\0\\# opt=m
 odredundant hf/6-31g geom=connectivity\\Title Card Required\\0,1\C,3.8
 76435029,2.2975802943,2.035191958\C,4.4765672841,3.2818664897,2.807782
 1643\C,3.7466317243,4.392600033,3.2059486918\C,2.4175401394,4.51602037
 81,2.827323973\C,1.8215718453,3.5292386184,2.0546939154\C,2.5378191103
 ,2.4004866974,1.6503218186\H,4.4591328746,1.4483722546,1.7284460674\H,
 5.506696141,3.1846975467,3.0933025378\H,4.2097808137,5.1558701785,3.80
 16222605\H,1.8503528686,5.376264999,3.1280016556\H,0.7937831975,3.6453
 385965,1.7632214602\Si,1.7035307355,1.0249783138,0.6186213147\H,0.6453
 909362,1.63853874,-0.2439595264\H,2.7310597925,0.3886554887,-0.2642376
 279\C,0.9006611493,-0.3326348813,1.7180291218\H,1.6699017332,-0.750008
 0798,2.3622039426\H,0.1791691416,0.1433315142,2.3766648093\C,0.2227028
 289,-1.4509031855,0.9107575838\H,0.9319940353,-1.9607592528,0.26729715
 \H,-0.2167402001,-2.1947337562,1.5668234053\H,-0.57039144,-1.060406727
 3,0.2817862942\\Version=EM64L-G09RevD.01\State=1-A\HF=-598.7000619,-59
 8.7002446,-598.7007444,-598.7014318,-598.7021314,-598.7026684,-598.702
 9094,-598.7027856,-598.7023363,-598.7017069,-598.7010835,-598.7006296,
 -598.7004538,-598.7006971,-598.7011595,-598.7017546,-598.7023319,-598.
 7027451,-598.7028934\RMSD=6.440e-09,5.922e-09,8.337e-09,2.073e-09,5.23
 7e-09,5.668e-09,2.618e-09,5.471e-09,3.177e-09,6.297e-09,3.476e-09,7.37
 0e-09,3.636e-09,7.317e-09,3.056e-09,5.993e-09,7.659e-09,9.181e-09,7.31
 2e-09\PG=C01 [X(C8H12Si1)]\\@


 FAULTILY FAULTLESS, ICILY REGULAR, SPLENDIDLY NULL...
           MAUDE BY TENNYSON
 Job cpu time:       0 days  0 hours 11 minutes 38.9 seconds.
 File lengths (MBytes):  RWF=     10 Int=      0 D2E=      0 Chk=      5 Scr=      1
 Normal termination of Gaussian 09 at Wed Sep  7 12:36:32 2016.
