 Entering Gaussian System, Link 0=g09
 Input=/afs/.ir.stanford.edu/users/j/o/joeburg/Gaussian Input/EtOCSPhenyl_RHF6-31G_scan_0_180.com
 Output=/afs/.ir.stanford.edu/users/j/o/joeburg/Gaussian Input/EtOCSPhenyl_RHF6-31G_scan_0_180.log
 Initial command:
 /farmshare/software/non-free/gaussian/D.01/g09D.01/l1.exe "/tmp/Gau-8019.inp" -scrdir="/tmp/"
 Entering Link 1 = /farmshare/software/non-free/gaussian/D.01/g09D.01/l1.exe PID=      8021.
  
 Copyright (c) 1988,1990,1992,1993,1995,1998,2003,2009,2013,
            Gaussian, Inc.  All Rights Reserved.
  
 This is part of the Gaussian(R) 09 program.  It is based on
 the Gaussian(R) 03 system (copyright 2003, Gaussian, Inc.),
 the Gaussian(R) 98 system (copyright 1998, Gaussian, Inc.),
 the Gaussian(R) 94 system (copyright 1995, Gaussian, Inc.),
 the Gaussian 92(TM) system (copyright 1992, Gaussian, Inc.),
 the Gaussian 90(TM) system (copyright 1990, Gaussian, Inc.),
 the Gaussian 88(TM) system (copyright 1988, Gaussian, Inc.),
 the Gaussian 86(TM) system (copyright 1986, Carnegie Mellon
 University), and the Gaussian 82(TM) system (copyright 1983,
 Carnegie Mellon University). Gaussian is a federally registered
 trademark of Gaussian, Inc.
  
 This software contains proprietary and confidential information,
 including trade secrets, belonging to Gaussian, Inc.
  
 This software is provided under written license and may be
 used, copied, transmitted, or stored only in accord with that
 written license.
  
 The following legend is applicable only to US Government
 contracts under FAR:
  
                    RESTRICTED RIGHTS LEGEND
  
 Use, reproduction and disclosure by the US Government is
 subject to restrictions as set forth in subparagraphs (a)
 and (c) of the Commercial Computer Software - Restricted
 Rights clause in FAR 52.227-19.
  
 Gaussian, Inc.
 340 Quinnipiac St., Bldg. 40, Wallingford CT 06492
  
  
 ---------------------------------------------------------------
 Warning -- This program may not be used in any manner that
 competes with the business of Gaussian, Inc. or will provide
 assistance to any competitor of Gaussian, Inc.  The licensee
 of this program is prohibited from giving any competitor of
 Gaussian, Inc. access to this program.  By using this program,
 the user acknowledges that Gaussian, Inc. is engaged in the
 business of creating and licensing software in the field of
 computational chemistry and represents and warrants to the
 licensee that it is not a competitor of Gaussian, Inc. and that
 it will not use this program in any manner prohibited above.
 ---------------------------------------------------------------
  

 Cite this work as:
 Gaussian 09, Revision D.01,
 M. J. Frisch, G. W. Trucks, H. B. Schlegel, G. E. Scuseria, 
 M. A. Robb, J. R. Cheeseman, G. Scalmani, V. Barone, B. Mennucci, 
 G. A. Petersson, H. Nakatsuji, M. Caricato, X. Li, H. P. Hratchian, 
 A. F. Izmaylov, J. Bloino, G. Zheng, J. L. Sonnenberg, M. Hada, 
 M. Ehara, K. Toyota, R. Fukuda, J. Hasegawa, M. Ishida, T. Nakajima, 
 Y. Honda, O. Kitao, H. Nakai, T. Vreven, J. A. Montgomery, Jr., 
 J. E. Peralta, F. Ogliaro, M. Bearpark, J. J. Heyd, E. Brothers, 
 K. N. Kudin, V. N. Staroverov, T. Keith, R. Kobayashi, J. Normand, 
 K. Raghavachari, A. Rendell, J. C. Burant, S. S. Iyengar, J. Tomasi, 
 M. Cossi, N. Rega, J. M. Millam, M. Klene, J. E. Knox, J. B. Cross, 
 V. Bakken, C. Adamo, J. Jaramillo, R. Gomperts, R. E. Stratmann, 
 O. Yazyev, A. J. Austin, R. Cammi, C. Pomelli, J. W. Ochterski, 
 R. L. Martin, K. Morokuma, V. G. Zakrzewski, G. A. Voth, 
 P. Salvador, J. J. Dannenberg, S. Dapprich, A. D. Daniels, 
 O. Farkas, J. B. Foresman, J. V. Ortiz, J. Cioslowski, 
 and D. J. Fox, Gaussian, Inc., Wallingford CT, 2013.
 
 ******************************************
 Gaussian 09:  EM64L-G09RevD.01 24-Apr-2013
                 7-Sep-2016 
 ******************************************
 %chk=EtOCSPhenyl_RHF6-31G_scan_0_180.chk
 ---------------------------------------------
 # opt=modredundant hf/6-31g geom=connectivity
 ---------------------------------------------
 1/18=120,19=15,38=1,57=2/1,3;
 2/9=110,12=2,17=6,18=5,40=1/2;
 3/5=1,6=6,11=9,16=1,25=1,30=1,71=1/1,2,3;
 4//1;
 5/5=2,38=5/2;
 6/7=2,8=2,9=2,10=2,28=1/1;
 7//1,2,3,16;
 1/18=20,19=15/3(2);
 2/9=110/2;
 99//99;
 2/9=110/2;
 3/5=1,6=6,11=9,16=1,25=1,30=1,71=1/1,2,3;
 4/5=5,16=3,69=1/1;
 5/5=2,38=5/2;
 7//1,2,3,16;
 1/18=20,19=15/3(-5);
 2/9=110/2;
 6/7=2,8=2,9=2,10=2,19=2,28=1/1;
 99/9=1/99;
 -------------------
 Title Card Required
 -------------------
 Symbolic Z-matrix:
 Charge =  0 Multiplicity = 1
 C                    -2.43418  -0.06198  -0.32182 
 C                    -1.03282  -0.06605  -0.31144 
 C                    -0.33104   1.10475   0.00581 
 C                    -1.03062   2.27963   0.31268 
 C                    -2.43197   2.28371   0.3023 
 C                    -3.13375   1.11291  -0.01495 
 H                    -2.97     -0.95591  -0.56404 
 H                    -0.49868  -0.9631   -0.54574 
 H                    -0.49479   3.17357   0.5549 
 H                    -2.96612   3.18076   0.53659 
 H                    -4.20372   1.11602  -0.02288 
 Si                    1.6089    1.0991    0.02019 
 H                     2.10774   0.7366   -1.31422 
 H                     2.08876   0.11941   1.0055 
 C                     2.2572    2.86477   0.49527 
 H                     3.32717   2.86166   0.5032 
 H                     1.90791   3.57788  -0.22193 
 H                     1.89409   3.12863   1.46657 
 
 The following ModRedundant input section has been read:
 D       2       3      12      15 S  18 10.000                                
 

 GradGradGradGradGradGradGradGradGradGradGradGradGradGradGradGradGradGrad
 Berny optimization.
 Initialization pass.
                           ----------------------------
                           !    Initial Parameters    !
                           ! (Angstroms and Degrees)  !
 --------------------------                            --------------------------
 ! Name  Definition              Value          Derivative Info.                !
 --------------------------------------------------------------------------------
 ! R1    R(1,2)                  1.4014         estimate D2E/DX2                !
 ! R2    R(1,6)                  1.4014         estimate D2E/DX2                !
 ! R3    R(1,7)                  1.07           estimate D2E/DX2                !
 ! R4    R(2,3)                  1.4014         estimate D2E/DX2                !
 ! R5    R(2,8)                  1.07           estimate D2E/DX2                !
 ! R6    R(3,4)                  1.4014         estimate D2E/DX2                !
 ! R7    R(3,12)                 1.94           estimate D2E/DX2                !
 ! R8    R(4,5)                  1.4014         estimate D2E/DX2                !
 ! R9    R(4,9)                  1.07           estimate D2E/DX2                !
 ! R10   R(5,6)                  1.4014         estimate D2E/DX2                !
 ! R11   R(5,10)                 1.07           estimate D2E/DX2                !
 ! R12   R(6,11)                 1.07           estimate D2E/DX2                !
 ! R13   R(12,13)                1.47           estimate D2E/DX2                !
 ! R14   R(12,14)                1.47           estimate D2E/DX2                !
 ! R15   R(12,15)                1.94           estimate D2E/DX2                !
 ! R16   R(15,16)                1.07           estimate D2E/DX2                !
 ! R17   R(15,17)                1.07           estimate D2E/DX2                !
 ! R18   R(15,18)                1.07           estimate D2E/DX2                !
 ! A1    A(2,1,6)              120.0            estimate D2E/DX2                !
 ! A2    A(2,1,7)              120.0            estimate D2E/DX2                !
 ! A3    A(6,1,7)              120.0            estimate D2E/DX2                !
 ! A4    A(1,2,3)              120.0            estimate D2E/DX2                !
 ! A5    A(1,2,8)              120.0            estimate D2E/DX2                !
 ! A6    A(3,2,8)              120.0            estimate D2E/DX2                !
 ! A7    A(2,3,4)              120.0            estimate D2E/DX2                !
 ! A8    A(2,3,12)             120.0            estimate D2E/DX2                !
 ! A9    A(4,3,12)             120.0            estimate D2E/DX2                !
 ! A10   A(3,4,5)              120.0            estimate D2E/DX2                !
 ! A11   A(3,4,9)              120.0            estimate D2E/DX2                !
 ! A12   A(5,4,9)              120.0            estimate D2E/DX2                !
 ! A13   A(4,5,6)              120.0            estimate D2E/DX2                !
 ! A14   A(4,5,10)             120.0            estimate D2E/DX2                !
 ! A15   A(6,5,10)             120.0            estimate D2E/DX2                !
 ! A16   A(1,6,5)              120.0            estimate D2E/DX2                !
 ! A17   A(1,6,11)             120.0            estimate D2E/DX2                !
 ! A18   A(5,6,11)             120.0            estimate D2E/DX2                !
 ! A19   A(3,12,13)            109.4712         estimate D2E/DX2                !
 ! A20   A(3,12,14)            109.4712         estimate D2E/DX2                !
 ! A21   A(3,12,15)            109.4712         estimate D2E/DX2                !
 ! A22   A(13,12,14)           109.4712         estimate D2E/DX2                !
 ! A23   A(13,12,15)           109.4712         estimate D2E/DX2                !
 ! A24   A(14,12,15)           109.4712         estimate D2E/DX2                !
 ! A25   A(12,15,16)           109.4712         estimate D2E/DX2                !
 ! A26   A(12,15,17)           109.4712         estimate D2E/DX2                !
 ! A27   A(12,15,18)           109.4712         estimate D2E/DX2                !
 ! A28   A(16,15,17)           109.4712         estimate D2E/DX2                !
 ! A29   A(16,15,18)           109.4712         estimate D2E/DX2                !
 ! A30   A(17,15,18)           109.4712         estimate D2E/DX2                !
 ! D1    D(6,1,2,3)             -0.0001         estimate D2E/DX2                !
 ! D2    D(6,1,2,8)            180.0            estimate D2E/DX2                !
 ! D3    D(7,1,2,3)           -179.9999         estimate D2E/DX2                !
 ! D4    D(7,1,2,8)              0.0002         estimate D2E/DX2                !
 ! D5    D(2,1,6,5)              0.0001         estimate D2E/DX2                !
 ! D6    D(2,1,6,11)          -179.9999         estimate D2E/DX2                !
 ! D7    D(7,1,6,5)            179.9999         estimate D2E/DX2                !
 ! D8    D(7,1,6,11)            -0.0001         estimate D2E/DX2                !
 ! D9    D(1,2,3,4)              0.0            estimate D2E/DX2                !
 ! D10   D(1,2,3,12)           180.0            estimate D2E/DX2                !
 ! D11   D(8,2,3,4)            179.9999         estimate D2E/DX2                !
 ! D12   D(8,2,3,12)            -0.0001         estimate D2E/DX2                !
 ! D13   D(2,3,4,5)              0.0001         estimate D2E/DX2                !
 ! D14   D(2,3,4,9)           -179.9999         estimate D2E/DX2                !
 ! D15   D(12,3,4,5)          -179.9999         estimate D2E/DX2                !
 ! D16   D(12,3,4,9)             0.0001         estimate D2E/DX2                !
 ! D17   D(2,3,12,13)           60.0            estimate D2E/DX2                !
 ! D18   D(2,3,12,14)          -60.0            estimate D2E/DX2                !
 ! D19   D(2,3,12,15)          180.0            Scan                            !
 ! D20   D(4,3,12,13)         -120.0            estimate D2E/DX2                !
 ! D21   D(4,3,12,14)          120.0            estimate D2E/DX2                !
 ! D22   D(4,3,12,15)            0.0            estimate D2E/DX2                !
 ! D23   D(3,4,5,6)             -0.0001         estimate D2E/DX2                !
 ! D24   D(3,4,5,10)           179.9999         estimate D2E/DX2                !
 ! D25   D(9,4,5,6)            179.9999         estimate D2E/DX2                !
 ! D26   D(9,4,5,10)            -0.0001         estimate D2E/DX2                !
 ! D27   D(4,5,6,1)              0.0            estimate D2E/DX2                !
 ! D28   D(4,5,6,11)           180.0            estimate D2E/DX2                !
 ! D29   D(10,5,6,1)           180.0            estimate D2E/DX2                !
 ! D30   D(10,5,6,11)           -0.0001         estimate D2E/DX2                !
 ! D31   D(3,12,15,16)         180.0            estimate D2E/DX2                !
 ! D32   D(3,12,15,17)         -60.0            estimate D2E/DX2                !
 ! D33   D(3,12,15,18)          60.0            estimate D2E/DX2                !
 ! D34   D(13,12,15,16)        -60.0            estimate D2E/DX2                !
 ! D35   D(13,12,15,17)         60.0            estimate D2E/DX2                !
 ! D36   D(13,12,15,18)        180.0            estimate D2E/DX2                !
 ! D37   D(14,12,15,16)         60.0            estimate D2E/DX2                !
 ! D38   D(14,12,15,17)        180.0            estimate D2E/DX2                !
 ! D39   D(14,12,15,18)        -60.0            estimate D2E/DX2                !
 --------------------------------------------------------------------------------
 Trust Radius=3.00D-01 FncErr=1.00D-07 GrdErr=1.00D-07
 Number of optimizations in scan=  19
 Number of steps in this run=     97 maximum allowed number of steps=    108.
 GradGradGradGradGradGradGradGradGradGradGradGradGradGradGradGradGradGrad

                          Input orientation:                          
 ---------------------------------------------------------------------
 Center     Atomic      Atomic             Coordinates (Angstroms)
 Number     Number       Type             X           Y           Z
 ---------------------------------------------------------------------
      1          6           0       -2.434179   -0.061975   -0.321819
      2          6           0       -1.032823   -0.066055   -0.311436
      3          6           0       -0.331043    1.104749    0.005812
      4          6           0       -1.030619    2.279631    0.312677
      5          6           0       -2.431975    2.283710    0.302295
      6          6           0       -3.133755    1.112907   -0.014953
      7          1           0       -2.970003   -0.955910   -0.564044
      8          1           0       -0.498682   -0.963104   -0.545735
      9          1           0       -0.494795    3.173566    0.554902
     10          1           0       -2.966116    3.180759    0.536595
     11          1           0       -4.203721    1.116021   -0.022879
     12         14           0        1.608895    1.099101    0.020187
     13          1           0        2.107743    0.736602   -1.314221
     14          1           0        2.088757    0.119415    1.005503
     15          6           0        2.257202    2.864772    0.495269
     16          1           0        3.327168    2.861657    0.503198
     17          1           0        1.907915    3.577877   -0.221933
     18          1           0        1.894095    3.128632    1.466573
 ---------------------------------------------------------------------
                    Distance matrix (angstroms):
                    1          2          3          4          5
     1  C    0.000000
     2  C    1.401400   0.000000
     3  C    2.427296   1.401400   0.000000
     4  C    2.802800   2.427296   1.401400   0.000000
     5  C    2.427296   2.802800   2.427296   1.401400   0.000000
     6  C    1.401400   2.427296   2.802800   2.427296   1.401400
     7  H    1.070000   2.146700   3.396345   3.872800   3.396345
     8  H    2.146700   1.070000   2.146700   3.396345   3.872800
     9  H    3.872800   3.396345   2.146700   1.070000   2.146700
    10  H    3.396345   3.872800   3.396345   2.146700   1.070000
    11  H    2.146700   3.396345   3.872800   3.396345   2.146700
    12  Si   4.220369   2.906241   1.940000   2.906241   4.220369
    13  H    4.717165   3.393080   2.797445   3.857078   5.061196
    14  H    4.717164   3.393080   2.797445   3.857078   5.061195
    15  C    5.589503   4.479374   3.168007   3.344473   4.728980
    16  H    6.513171   5.314570   4.088598   4.400609   5.791555
    17  H    5.666770   4.683395   3.343825   3.256721   4.558983
    18  H    5.666770   4.683395   3.343825   3.256721   4.558982
                    6          7          8          9         10
     6  C    0.000000
     7  H    2.146700   0.000000
     8  H    3.396345   2.471400   0.000000
     9  H    3.396345   4.942800   4.280590   0.000000
    10  H    2.146700   4.280590   4.942800   2.471400   0.000000
    11  H    1.070000   2.471400   4.280590   4.280590   2.471400
    12  Si   4.742800   5.052792   3.002472   3.002472   5.052792
    13  H    5.413225   5.404709   3.205155   4.025620   5.928193
    14  H    5.413224   5.404707   3.205156   4.025621   5.928192
    15  C    5.691377   6.560750   4.830240   2.769909   5.233031
    16  H    6.713429   7.440914   5.510552   3.835018   6.301458
    17  H    5.615812   6.668309   5.149472   2.557333   4.948661
    18  H    5.615811   6.668309   5.149472   2.557334   4.948660
                   11         12         13         14         15
    11  H    0.000000
    12  Si   5.812800   0.000000
    13  H    6.453379   1.470000   0.000000
    14  H    6.453377   1.470000   2.400500   0.000000
    15  C    6.713429   1.940000   2.797445   2.797445   0.000000
    16  H    7.748438   2.508459   3.050552   3.050552   1.070000
    17  H    6.591847   2.508459   3.050552   3.674271   1.070000
    18  H    6.591845   2.508459   3.674271   3.050552   1.070000
                   16         17         18
    16  H    0.000000
    17  H    1.747303   0.000000
    18  H    1.747303   1.747303   0.000000
 Stoichiometry    C7H10Si
 Framework group  C1[X(C7H10Si)]
 Deg. of freedom    48
 Full point group                 C1      NOp   1
 Largest Abelian subgroup         C1      NOp   1
 Largest concise Abelian subgroup C1      NOp   1
                         Standard orientation:                         
 ---------------------------------------------------------------------
 Center     Atomic      Atomic             Coordinates (Angstroms)
 Number     Number       Type             X           Y           Z
 ---------------------------------------------------------------------
      1          6           0       -2.312224   -0.963519   -0.000001
      2          6           0       -0.946493   -1.277685   -0.000001
      3          6           0        0.008449   -0.252010   -0.000001
      4          6           0       -0.402341    1.087831   -0.000001
      5          6           0       -1.768072    1.401997    0.000000
      6          6           0       -2.723014    0.376322    0.000001
      7          1           0       -3.041343   -1.746644    0.000002
      8          1           0       -0.632846   -2.300683   -0.000001
      9          1           0        0.326778    1.870956   -0.000003
     10          1           0       -2.081719    2.424995    0.000001
     11          1           0       -3.765780    0.616195    0.000003
     12         14           0        1.899071   -0.686920    0.000000
     13          1           0        2.221251   -1.472096   -1.200249
     14          1           0        2.221250   -1.472095    1.200251
     15          6           0        2.939315    0.950606    0.000000
     16          1           0        3.982082    0.710733    0.000001
     17          1           0        2.704804    1.522128   -0.873651
     18          1           0        2.704804    1.522129    0.873651
 ---------------------------------------------------------------------
 Rotational constants (GHZ):      3.9737349      1.0498056      0.8427227
 Standard basis: 6-31G (6D, 7F)
 There are    96 symmetry adapted cartesian basis functions of A   symmetry.
 There are    96 symmetry adapted basis functions of A   symmetry.
    96 basis functions,   240 primitive gaussians,    96 cartesian basis functions
    33 alpha electrons       33 beta electrons
       nuclear repulsion energy       396.7711314174 Hartrees.
 NAtoms=   18 NActive=   18 NUniq=   18 SFac= 1.00D+00 NAtFMM=   60 NAOKFM=F Big=F
 Integral buffers will be    131072 words long.
 Raffenetti 1 integral format.
 Two-electron integral symmetry is turned on.
 One-electron integrals computed using PRISM.
 NBasis=    96 RedAO= T EigKep=  7.03D-04  NBF=    96
 NBsUse=    96 1.00D-06 EigRej= -1.00D+00 NBFU=    96
 ExpMin= 7.78D-02 ExpMax= 1.61D+04 ExpMxC= 2.43D+03 IAcc=2 IRadAn=         4 AccDes= 0.00D+00
 Harris functional with IExCor=  205 and IRadAn=       4 diagonalized for initial guess.
 HarFok:  IExCor=  205 AccDes= 0.00D+00 IRadAn=         4 IDoV= 1 UseB2=F ITyADJ=14
 ICtDFT=  3500011 ScaDFX=  1.000000  1.000000  1.000000  1.000000
 FoFCou: FMM=F IPFlag=           0 FMFlag=      100000 FMFlg1=           0
         NFxFlg=           0 DoJE=T BraDBF=F KetDBF=T FulRan=T
         wScrn=  0.000000 ICntrl=     500 IOpCl=  0 I1Cent=   200000004 NGrid=           0
         NMat0=    1 NMatS0=      1 NMatT0=    0 NMatD0=    1 NMtDS0=    0 NMtDT0=    0
 Petite list used in FoFCou.
 Keep R1 ints in memory in canonical form, NReq=11772888.
 Requested convergence on RMS density matrix=1.00D-08 within 128 cycles.
 Requested convergence on MAX density matrix=1.00D-06.
 Requested convergence on             energy=1.00D-06.
 No special actions if energy rises.
 SCF Done:  E(RHF) =  -559.684594323     A.U. after   14 cycles
            NFock= 14  Conv=0.39D-08     -V/T= 1.9994

 **********************************************************************

            Population analysis using the SCF density.

 **********************************************************************

 Orbital symmetries:
       Occupied  (A) (A) (A) (A) (A) (A) (A) (A) (A) (A) (A) (A)
                 (A) (A) (A) (A) (A) (A) (A) (A) (A) (A) (A) (A)
                 (A) (A) (A) (A) (A) (A) (A) (A) (A)
       Virtual   (A) (A) (A) (A) (A) (A) (A) (A) (A) (A) (A) (A)
                 (A) (A) (A) (A) (A) (A) (A) (A) (A) (A) (A) (A)
                 (A) (A) (A) (A) (A) (A) (A) (A) (A) (A) (A) (A)
                 (A) (A) (A) (A) (A) (A) (A) (A) (A) (A) (A) (A)
                 (A) (A) (A) (A) (A) (A) (A) (A) (A) (A) (A) (A)
                 (A) (A) (A)
 The electronic state is 1-A.
 Alpha  occ. eigenvalues --  -68.77707 -11.24082 -11.24058 -11.24030 -11.23865
 Alpha  occ. eigenvalues --  -11.23829 -11.23446 -11.20678  -6.14083  -4.24647
 Alpha  occ. eigenvalues --   -4.24588  -4.24513  -1.14811  -1.01536  -1.01187
 Alpha  occ. eigenvalues --   -0.95127  -0.82639  -0.81822  -0.72230  -0.68025
 Alpha  occ. eigenvalues --   -0.62728  -0.61758  -0.59143  -0.56942  -0.56893
 Alpha  occ. eigenvalues --   -0.53760  -0.50313  -0.49185  -0.46517  -0.44043
 Alpha  occ. eigenvalues --   -0.42062  -0.33358  -0.33089
 Alpha virt. eigenvalues --    0.13059   0.14196   0.16873   0.18889   0.23428
 Alpha virt. eigenvalues --    0.25565   0.27027   0.28903   0.29740   0.29843
 Alpha virt. eigenvalues --    0.31228   0.32606   0.34493   0.35105   0.35149
 Alpha virt. eigenvalues --    0.40676   0.42332   0.45311   0.46908   0.47673
 Alpha virt. eigenvalues --    0.50542   0.54129   0.55868   0.69280   0.75857
 Alpha virt. eigenvalues --    0.77993   0.78274   0.80111   0.80493   0.84588
 Alpha virt. eigenvalues --    0.84655   0.85205   0.88367   0.88948   0.89269
 Alpha virt. eigenvalues --    0.90184   0.91543   0.96686   1.01750   1.02858
 Alpha virt. eigenvalues --    1.11617   1.14424   1.15057   1.17278   1.19471
 Alpha virt. eigenvalues --    1.22964   1.23622   1.23791   1.24768   1.26632
 Alpha virt. eigenvalues --    1.27744   1.29301   1.30803   1.34648   1.35202
 Alpha virt. eigenvalues --    1.39456   1.42775   1.45747   1.48171   1.56335
 Alpha virt. eigenvalues --    1.69542   1.73709   2.15914
          Condensed to atoms (all electrons):
               1          2          3          4          5          6
     1  C    4.983585   0.512966  -0.056704  -0.038822  -0.051139   0.508264
     2  C    0.512966   4.973170   0.476207  -0.031771  -0.039438  -0.045295
     3  C   -0.056704   0.476207   5.464811   0.481346  -0.058205  -0.044094
     4  C   -0.038822  -0.031771   0.481346   4.982721   0.508819  -0.045111
     5  C   -0.051139  -0.039438  -0.058205   0.508819   4.987708   0.510272
     6  C    0.508264  -0.045295  -0.044094  -0.045111   0.510272   4.987672
     7  H    0.375929  -0.026524   0.003737  -0.000033   0.002592  -0.026737
     8  H   -0.023578   0.378404  -0.025583   0.002594   0.000101   0.002432
     9  H    0.000062   0.002755  -0.023646   0.379488  -0.025096   0.002523
    10  H    0.002550  -0.000026   0.003993  -0.027136   0.376196  -0.026846
    11  H   -0.025681   0.002646  -0.000086   0.002688  -0.025632   0.377347
    12  Si   0.002345  -0.003793   0.250549  -0.010196   0.002732  -0.000853
    13  H    0.000097   0.002062  -0.032112  -0.001615  -0.000012  -0.000001
    14  H    0.000097   0.002062  -0.032112  -0.001615  -0.000012  -0.000001
    15  C   -0.000005  -0.001211  -0.042777   0.009048   0.000357  -0.000013
    16  H    0.000000  -0.000003   0.000914   0.000008  -0.000002   0.000000
    17  H    0.000000   0.000059   0.001132  -0.001151  -0.000046  -0.000001
    18  H    0.000000   0.000059   0.001132  -0.001151  -0.000046  -0.000001
               7          8          9         10         11         12
     1  C    0.375929  -0.023578   0.000062   0.002550  -0.025681   0.002345
     2  C   -0.026524   0.378404   0.002755  -0.000026   0.002646  -0.003793
     3  C    0.003737  -0.025583  -0.023646   0.003993  -0.000086   0.250549
     4  C   -0.000033   0.002594   0.379488  -0.027136   0.002688  -0.010196
     5  C    0.002592   0.000101  -0.025096   0.376196  -0.025632   0.002732
     6  C   -0.026737   0.002432   0.002523  -0.026846   0.377347  -0.000853
     7  H    0.474578  -0.000116   0.000005  -0.000101  -0.000425  -0.000125
     8  H   -0.000116   0.470670  -0.000104   0.000005  -0.000108   0.001088
     9  H    0.000005  -0.000104   0.471022  -0.000099  -0.000108  -0.003069
    10  H   -0.000101   0.000005  -0.000099   0.475435  -0.000444  -0.000121
    11  H   -0.000425  -0.000108  -0.000108  -0.000444   0.471161   0.000012
    12  Si  -0.000125   0.001088  -0.003069  -0.000121   0.000012  11.652271
    13  H    0.000001  -0.000254  -0.000021   0.000000   0.000000   0.370266
    14  H    0.000001  -0.000254  -0.000021   0.000000   0.000000   0.370266
    15  C    0.000000  -0.000017  -0.003113   0.000006   0.000000   0.330729
    16  H    0.000000   0.000001   0.000150   0.000000   0.000000  -0.018969
    17  H    0.000000  -0.000001   0.000151   0.000001   0.000000  -0.019899
    18  H    0.000000  -0.000001   0.000151   0.000001   0.000000  -0.019899
              13         14         15         16         17         18
     1  C    0.000097   0.000097  -0.000005   0.000000   0.000000   0.000000
     2  C    0.002062   0.002062  -0.001211  -0.000003   0.000059   0.000059
     3  C   -0.032112  -0.032112  -0.042777   0.000914   0.001132   0.001132
     4  C   -0.001615  -0.001615   0.009048   0.000008  -0.001151  -0.001151
     5  C   -0.000012  -0.000012   0.000357  -0.000002  -0.000046  -0.000046
     6  C   -0.000001  -0.000001  -0.000013   0.000000  -0.000001  -0.000001
     7  H    0.000001   0.000001   0.000000   0.000000   0.000000   0.000000
     8  H   -0.000254  -0.000254  -0.000017   0.000001  -0.000001  -0.000001
     9  H   -0.000021  -0.000021  -0.003113   0.000150   0.000151   0.000151
    10  H    0.000000   0.000000   0.000006   0.000000   0.000001   0.000001
    11  H    0.000000   0.000000   0.000000   0.000000   0.000000   0.000000
    12  Si   0.370266   0.370266   0.330729  -0.018969  -0.019899  -0.019899
    13  H    0.925284  -0.031612  -0.027859   0.000065  -0.000790   0.000889
    14  H   -0.031612   0.925283  -0.027859   0.000065   0.000889  -0.000790
    15  C   -0.027859  -0.027859   5.505788   0.371738   0.369862   0.369862
    16  H    0.000065   0.000065   0.371738   0.509205  -0.021944  -0.021944
    17  H   -0.000790   0.000889   0.369862  -0.021944   0.516897  -0.023875
    18  H    0.000889  -0.000790   0.369862  -0.021944  -0.023875   0.516897
 Mulliken charges:
               1
     1  C   -0.189966
     2  C   -0.202331
     3  C   -0.368504
     4  C   -0.208110
     5  C   -0.189149
     6  C   -0.199558
     7  H    0.197218
     8  H    0.194720
     9  H    0.198971
    10  H    0.196586
    11  H    0.198629
    12  Si   1.096664
    13  H   -0.204389
    14  H   -0.204389
    15  C   -0.854539
    16  H    0.180716
    17  H    0.178716
    18  H    0.178716
 Sum of Mulliken charges =   0.00000
 Mulliken charges with hydrogens summed into heavy atoms:
               1
     1  C    0.007251
     2  C   -0.007611
     3  C   -0.368504
     4  C   -0.009139
     5  C    0.007437
     6  C   -0.000929
    12  Si   0.687886
    15  C   -0.316391
 Electronic spatial extent (au):  <R**2>=           1383.1331
 Charge=              0.0000 electrons
 Dipole moment (field-independent basis, Debye):
    X=             -0.2996    Y=              0.4298    Z=              0.0000  Tot=              0.5239
 Quadrupole moment (field-independent basis, Debye-Ang):
   XX=            -52.9148   YY=            -53.9176   ZZ=            -62.1767
   XY=              0.9021   XZ=              0.0000   YZ=              0.0000
 Traceless Quadrupole moment (field-independent basis, Debye-Ang):
   XX=              3.4216   YY=              2.4188   ZZ=             -5.8404
   XY=              0.9021   XZ=              0.0000   YZ=              0.0000
 Octapole moment (field-independent basis, Debye-Ang**2):
  XXX=            -20.2511  YYY=              4.4984  ZZZ=              0.0000  XYY=            -11.5136
  XXY=              1.6032  XXZ=              0.0001  XZZ=              2.4515  YZZ=              4.2020
  YYZ=              0.0000  XYZ=              0.0000
 Hexadecapole moment (field-independent basis, Debye-Ang**3):
 XXXX=          -1359.9693 YYYY=           -414.8324 ZZZZ=            -99.1729 XXXY=             -1.1625
 XXXZ=             -0.0002 YYYX=              7.3437 YYYZ=              0.0000 ZZZX=              0.0000
 ZZZY=              0.0000 XXYY=           -312.8738 XXZZ=           -279.9797 YYZZ=            -98.2902
 XXYZ=              0.0000 YYXZ=              0.0000 ZZXY=             10.5409
 N-N= 3.967711314174D+02 E-N=-2.112971614915D+03  KE= 5.599940325571D+02
 Calling FoFJK, ICntrl=      2127 FMM=F ISym2X=0 I1Cent= 0 IOpClX= 0 NMat=1 NMatS=1 NMatT=0.
 ***** Axes restored to original set *****
 -------------------------------------------------------------------
 Center     Atomic                   Forces (Hartrees/Bohr)
 Number     Number              X              Y              Z
 -------------------------------------------------------------------
      1        6           0.008612322    0.011455293    0.003118615
      2        6          -0.016388451    0.014215709    0.003648031
      3        6           0.010697873   -0.000144549    0.000048976
      4        6          -0.014192109   -0.014018584   -0.003845857
      5        6           0.006459380   -0.012894880   -0.003378105
      6        6           0.016791347    0.001072424    0.000422776
      7        1          -0.001515272   -0.002043633   -0.000556275
      8        1           0.000318149   -0.003218680   -0.000853700
      9        1          -0.000663727    0.002106397    0.000555080
     10        1          -0.001525592    0.002060750    0.000535796
     11        1          -0.002316233   -0.000008164   -0.000021172
     12       14          -0.014131161    0.019896042    0.005177861
     13        1           0.004140109   -0.004123136   -0.008106685
     14        1           0.004032427   -0.007623171    0.005048343
     15        6          -0.007101474   -0.021666890   -0.005822825
     16        1           0.009789456    0.002294469    0.000690589
     17        1          -0.001442722    0.008296753   -0.005759285
     18        1          -0.001564322    0.004343851    0.009097838
 -------------------------------------------------------------------
 Cartesian Forces:  Max     0.021666890 RMS     0.007993026

 GradGradGradGradGradGradGradGradGradGradGradGradGradGradGradGradGradGrad
 Berny optimization.
 FormGI is forming the generalized inverse of G from B-inverse, IUseBI=4.
 Internal  Forces:  Max     0.015594604 RMS     0.004500761
 Search for a local minimum.
 Step number   1 out of a maximum of   97 on scan point     1 out of    19
 All quantities printed in internal units (Hartrees-Bohrs-Radians)
 Mixed Optimization -- RFO/linear search
 Second derivative matrix not updated -- first step.
 ITU=  0
     Eigenvalues ---    0.00239   0.00988   0.02070   0.02070   0.02070
     Eigenvalues ---    0.02070   0.02070   0.02070   0.02070   0.02070
     Eigenvalues ---    0.03261   0.05411   0.05721   0.05721   0.08670
     Eigenvalues ---    0.11053   0.16000   0.16000   0.16000   0.16000
     Eigenvalues ---    0.16000   0.16000   0.16000   0.16000   0.17593
     Eigenvalues ---    0.17593   0.18253   0.18253   0.21983   0.22000
     Eigenvalues ---    0.22000   0.23485   0.25000   0.37230   0.37230
     Eigenvalues ---    0.37230   0.37230   0.37230   0.37230   0.37230
     Eigenvalues ---    0.37230   0.41268   0.41459   0.45389   0.45389
     Eigenvalues ---    0.45389   0.453891000.000001000.000001000.00000
     Eigenvalues --- 1000.000001000.000001000.000001000.000001000.00000
     Eigenvalues --- 1000.000001000.000001000.000001000.000001000.00000
     Eigenvalues --- 1000.000001000.000001000.000001000.000001000.00000
     Eigenvalues --- 1000.000001000.000001000.000001000.000001000.00000
     Eigenvalues --- 1000.000001000.000001000.000001000.000001000.00000
     Eigenvalues --- 1000.000001000.000001000.000001000.000001000.00000
     Eigenvalues --- 1000.000001000.000001000.000001000.000001000.00000
     Eigenvalues --- 1000.000001000.00000
 RFO step:  Lambda=-5.70850950D-03 EMin= 2.38596593D-03
 Linear search not attempted -- first point.
 Iteration  1 RMS(Cart)=  0.02922792 RMS(Int)=  0.00045879
 Iteration  2 RMS(Cart)=  0.00058749 RMS(Int)=  0.00006595
 Iteration  3 RMS(Cart)=  0.00000024 RMS(Int)=  0.00006595
 Iteration  1 RMS(Cart)=  0.00000000 RMS(Int)=  0.00000000
 Variable       Old X    -DE/DX   Delta X   Delta X   Delta X     New X
                                 (Linear)    (Quad)   (Total)
    R1        2.64826  -0.01408   0.00000  -0.03067  -0.03067   2.61759
    R2        2.64826  -0.01436   0.00000  -0.03181  -0.03184   2.61643
    R3        2.02201   0.00259   0.00000   0.00686   0.00686   2.02886
    R4        2.64826  -0.00640   0.00000  -0.01340  -0.01337   2.63489
    R5        2.02201   0.00304   0.00000   0.00805   0.00805   2.03006
    R6        2.64826  -0.00735   0.00000  -0.01542  -0.01539   2.63287
    R7        3.66607  -0.00628   0.00000  -0.03457  -0.03457   3.63150
    R8        2.64826  -0.01243   0.00000  -0.02700  -0.02700   2.62126
    R9        2.02201   0.00155   0.00000   0.00411   0.00411   2.02612
   R10        2.64826  -0.01559   0.00000  -0.03446  -0.03449   2.61377
   R11        2.02201   0.00261   0.00000   0.00690   0.00690   2.02890
   R12        2.02201   0.00232   0.00000   0.00613   0.00613   2.02813
   R13        2.77790   0.00978   0.00000   0.05196   0.05196   2.82986
   R14        2.77790   0.00978   0.00000   0.05196   0.05196   2.82986
   R15        3.66607  -0.00667   0.00000  -0.03674  -0.03674   3.62933
   R16        2.02201   0.00979   0.00000   0.02589   0.02589   2.04790
   R17        2.02201   0.00986   0.00000   0.02609   0.02609   2.04809
   R18        2.02201   0.00986   0.00000   0.02609   0.02609   2.04809
    A1        2.09440   0.00030   0.00000  -0.00064  -0.00067   2.09373
    A2        2.09440   0.00010   0.00000   0.00185   0.00187   2.09626
    A3        2.09440  -0.00041   0.00000  -0.00121  -0.00120   2.09320
    A4        2.09440   0.00411   0.00000   0.01852   0.01854   2.11294
    A5        2.09440  -0.00346   0.00000  -0.01772  -0.01773   2.07666
    A6        2.09440  -0.00065   0.00000  -0.00080  -0.00081   2.09358
    A7        2.09440  -0.00867   0.00000  -0.03251  -0.03246   2.06194
    A8        2.09440   0.00248   0.00000   0.00900   0.00897   2.10337
    A9        2.09440   0.00619   0.00000   0.02351   0.02348   2.11788
   A10        2.09440   0.00364   0.00000   0.01666   0.01669   2.11108
   A11        2.09440  -0.00013   0.00000   0.00183   0.00182   2.09621
   A12        2.09440  -0.00350   0.00000  -0.01849  -0.01850   2.07589
   A13        2.09440   0.00054   0.00000   0.00063   0.00060   2.09500
   A14        2.09440  -0.00001   0.00000   0.00127   0.00128   2.09567
   A15        2.09440  -0.00053   0.00000  -0.00189  -0.00188   2.09251
   A16        2.09440   0.00008   0.00000  -0.00266  -0.00271   2.09169
   A17        2.09440  -0.00006   0.00000   0.00124   0.00126   2.09566
   A18        2.09440  -0.00003   0.00000   0.00142   0.00145   2.09584
   A19        1.91063  -0.00151   0.00000  -0.00235  -0.00259   1.90804
   A20        1.91063  -0.00151   0.00000  -0.00235  -0.00259   1.90804
   A21        1.91063   0.00565   0.00000   0.03297   0.03272   1.94336
   A22        1.91063  -0.00098   0.00000  -0.03060  -0.03065   1.87999
   A23        1.91063  -0.00082   0.00000   0.00117   0.00102   1.91165
   A24        1.91063  -0.00082   0.00000   0.00117   0.00102   1.91165
   A25        1.91063   0.00218   0.00000   0.01111   0.01104   1.92167
   A26        1.91063   0.00267   0.00000   0.01713   0.01697   1.92760
   A27        1.91063   0.00267   0.00000   0.01713   0.01697   1.92760
   A28        1.91063  -0.00268   0.00000  -0.01822  -0.01829   1.89234
   A29        1.91063  -0.00268   0.00000  -0.01822  -0.01829   1.89234
   A30        1.91063  -0.00215   0.00000  -0.00892  -0.00915   1.90148
    D1        0.00000   0.00000   0.00000   0.00000   0.00000   0.00000
    D2        3.14159   0.00000   0.00000   0.00000   0.00000  -3.14159
    D3       -3.14159   0.00000   0.00000   0.00000   0.00000   3.14159
    D4        0.00000   0.00000   0.00000   0.00000   0.00000   0.00000
    D5        0.00000   0.00000   0.00000   0.00000   0.00000   0.00000
    D6       -3.14159   0.00000   0.00000   0.00000   0.00000   3.14159
    D7        3.14159   0.00000   0.00000   0.00000   0.00000  -3.14159
    D8        0.00000   0.00000   0.00000   0.00000   0.00000   0.00000
    D9        0.00000   0.00000   0.00000   0.00000   0.00000   0.00000
   D10        3.14159   0.00000   0.00000   0.00000   0.00000   3.14159
   D11        3.14159   0.00000   0.00000   0.00000   0.00000   3.14159
   D12        0.00000   0.00000   0.00000   0.00000   0.00000   0.00000
   D13        0.00000   0.00000   0.00000   0.00000   0.00000   0.00000
   D14       -3.14159   0.00000   0.00000   0.00000   0.00000  -3.14159
   D15       -3.14159   0.00000   0.00000   0.00000   0.00000  -3.14159
   D16        0.00000   0.00000   0.00000   0.00000   0.00000   0.00000
   D17        1.04720  -0.00153   0.00000  -0.02018  -0.02018   1.02702
   D18       -1.04720   0.00153   0.00000   0.02018   0.02018  -1.02702
   D19        3.14159   0.00000   0.00000   0.00000   0.00000   3.14159
   D20       -2.09440  -0.00153   0.00000  -0.02018  -0.02018  -2.11458
   D21        2.09440   0.00153   0.00000   0.02018   0.02018   2.11457
   D22        0.00000   0.00000   0.00000   0.00000   0.00000   0.00000
   D23        0.00000   0.00000   0.00000   0.00000   0.00000   0.00000
   D24        3.14159   0.00000   0.00000   0.00000   0.00000  -3.14159
   D25        3.14159   0.00000   0.00000   0.00000   0.00000   3.14159
   D26        0.00000   0.00000   0.00000   0.00000   0.00000   0.00000
   D27        0.00000   0.00000   0.00000   0.00000   0.00000   0.00000
   D28        3.14159   0.00000   0.00000   0.00000   0.00000   3.14159
   D29        3.14159   0.00000   0.00000   0.00000   0.00000  -3.14159
   D30        0.00000   0.00000   0.00000   0.00000   0.00000   0.00000
   D31        3.14159   0.00000   0.00000   0.00000   0.00000   3.14159
   D32       -1.04720  -0.00032   0.00000  -0.00503  -0.00507  -1.05227
   D33        1.04720   0.00032   0.00000   0.00503   0.00507   1.05227
   D34       -1.04720   0.00111   0.00000   0.01802   0.01807  -1.02913
   D35        1.04720   0.00079   0.00000   0.01300   0.01300   1.06020
   D36        3.14159   0.00142   0.00000   0.02305   0.02314  -3.11845
   D37        1.04720  -0.00111   0.00000  -0.01802  -0.01807   1.02913
   D38        3.14159  -0.00142   0.00000  -0.02305  -0.02314   3.11845
   D39       -1.04720  -0.00079   0.00000  -0.01300  -0.01300  -1.06020
         Item               Value     Threshold  Converged?
 Maximum Force            0.015595     0.000450     NO 
 RMS     Force            0.004527     0.000300     NO 
 Maximum Displacement     0.106539     0.001800     NO 
 RMS     Displacement     0.028950     0.001200     NO 
 Predicted change in Energy=-2.926372D-03
 GradGradGradGradGradGradGradGradGradGradGradGradGradGradGradGradGradGrad

                          Input orientation:                          
 ---------------------------------------------------------------------
 Center     Atomic      Atomic             Coordinates (Angstroms)
 Number     Number       Type             X           Y           Z
 ---------------------------------------------------------------------
      1          6           0       -2.423954   -0.051012   -0.318818
      2          6           0       -1.038928   -0.037863   -0.303985
      3          6           0       -0.333815    1.123143    0.010684
      4          6           0       -1.061362    2.272869    0.310628
      5          6           0       -2.448373    2.263421    0.296763
      6          6           0       -3.129662    1.101565   -0.017937
      7          1           0       -2.951370   -0.953644   -0.563289
      8          1           0       -0.507223   -0.941002   -0.539924
      9          1           0       -0.551173    3.183128    0.556987
     10          1           0       -2.994849    3.157620    0.530202
     11          1           0       -4.202818    1.093379   -0.028898
     12         14           0        1.587826    1.123611    0.026536
     13          1           0        2.094604    0.728112   -1.325962
     14          1           0        2.075475    0.106267    1.011270
     15          6           0        2.282672    2.852453    0.492200
     16          1           0        3.366137    2.830012    0.495096
     17          1           0        1.957414    3.596932   -0.225150
     18          1           0        1.943462    3.143368    1.479588
 ---------------------------------------------------------------------
                    Distance matrix (angstroms):
                    1          2          3          4          5
     1  C    0.000000
     2  C    1.385168   0.000000
     3  C    2.419895   1.394322   0.000000
     4  C    2.766457   2.391179   1.393256   0.000000
     5  C    2.395023   2.764659   2.419387   1.387112   0.000000
     6  C    1.384553   2.398184   2.796077   2.399536   1.383149
     7  H    1.073629   2.136195   3.390292   3.840084   3.367819
     8  H    2.124812   1.074262   2.143347   3.370383   3.838807
     9  H    3.838490   3.369564   2.142249   1.072174   2.124370
    10  H    3.367800   3.838308   3.389705   2.137608   1.073649
    11  H    2.134957   3.371288   3.869320   3.372717   2.133806
    12  Si   4.194447   2.891038   1.921706   2.901672   4.202748
    13  H    4.694543   3.383811   2.799980   3.876186   5.062514
    14  H    4.694543   3.383811   2.799980   3.876185   5.062513
    15  C    5.589292   4.474468   3.173070   3.398742   4.771576
    16  H    6.518275   5.316750   4.103377   4.466227   5.845416
    17  H    5.701987   4.711265   3.380086   3.339642   4.632667
    18  H    5.701986   4.711264   3.380086   3.339641   4.632666
                    6          7          8          9         10
     6  C    0.000000
     7  H    2.133795   0.000000
     8  H    3.364779   2.444291   0.000000
     9  H    3.363339   4.912113   4.267739   0.000000
    10  H    2.132134   4.254422   4.912449   2.443956   0.000000
    11  H    1.073243   2.458048   4.249385   4.247920   2.456190
    12  Si   4.717749   5.026647   2.995452   3.016340   5.039026
    13  H    5.398458   5.373251   3.189561   4.070962   5.937203
    14  H    5.398457   5.373250   3.189562   4.070962   5.937202
    15  C    5.711323   6.557105   4.820694   2.853808   5.286473
    16  H    6.741375   7.439565   5.504065   3.933680   6.369514
    17  H    5.669933   6.702107   5.173622   2.660071   5.028764
    18  H    5.669932   6.702107   5.173622   2.660071   5.028763
                   11         12         13         14         15
    11  H    0.000000
    12  Si   5.790988   0.000000
    13  H    6.439977   1.497495   0.000000
    14  H    6.439977   1.497495   2.418617   0.000000
    15  C    6.739989   1.920560   2.802482   2.802482   0.000000
    16  H    7.783286   2.508734   3.057946   3.057946   1.083702
    17  H    6.652424   2.513416   3.075831   3.705053   1.083804
    18  H    6.652423   2.513416   3.705053   3.075831   1.083804
                   16         17         18
    16  H    0.000000
    17  H    1.758244   0.000000
    18  H    1.758244   1.764099   0.000000
 Stoichiometry    C7H10Si
 Framework group  C1[X(C7H10Si)]
 Deg. of freedom    48
 Full point group                 C1      NOp   1
 Largest Abelian subgroup         C1      NOp   1
 Largest concise Abelian subgroup C1      NOp   1
                         Standard orientation:                         
 ---------------------------------------------------------------------
 Center     Atomic      Atomic             Coordinates (Angstroms)
 Number     Number       Type             X           Y           Z
 ---------------------------------------------------------------------
      1          6           0       -2.297312   -0.957465    0.000000
      2          6           0       -0.944017   -1.252904    0.000000
      3          6           0        0.013607   -0.239449    0.000000
      4          6           0       -0.428066    1.081947    0.000000
      5          6           0       -1.782434    1.381560    0.000000
      6          6           0       -2.717031    0.361938    0.000000
      7          1           0       -3.021566   -1.750013    0.000000
      8          1           0       -0.635874   -2.282023   -0.000001
      9          1           0        0.281170    1.886026    0.000000
     10          1           0       -2.107058    2.404957    0.000000
     11          1           0       -3.765133    0.592871    0.000000
     12         14           0        1.887085   -0.667275    0.000000
     13          1           0        2.207389   -1.490361   -1.209308
     14          1           0        2.207389   -1.490360    1.209309
     15          6           0        2.966864    0.921003    0.000000
     16          1           0        4.017889    0.656892    0.000000
     17          1           0        2.763470    1.517032   -0.882050
     18          1           0        2.763469    1.517033    0.882049
 ---------------------------------------------------------------------
 Rotational constants (GHZ):      4.0828111      1.0473819      0.8461530
 Standard basis: 6-31G (6D, 7F)
 There are    96 symmetry adapted cartesian basis functions of A   symmetry.
 There are    96 symmetry adapted basis functions of A   symmetry.
    96 basis functions,   240 primitive gaussians,    96 cartesian basis functions
    33 alpha electrons       33 beta electrons
       nuclear repulsion energy       398.4204769708 Hartrees.
 NAtoms=   18 NActive=   18 NUniq=   18 SFac= 1.00D+00 NAtFMM=   60 NAOKFM=F Big=F
 Integral buffers will be    131072 words long.
 Raffenetti 1 integral format.
 Two-electron integral symmetry is turned on.
 One-electron integrals computed using PRISM.
 NBasis=    96 RedAO= T EigKep=  6.41D-04  NBF=    96
 NBsUse=    96 1.00D-06 EigRej= -1.00D+00 NBFU=    96
 Initial guess from the checkpoint file:  "EtOCSPhenyl_RHF6-31G_scan_0_180.chk"
 B after Tr=     0.000000    0.000000    0.000000
         Rot=    1.000000    0.000000    0.000000   -0.000139 Ang=  -0.02 deg.
 ExpMin= 7.78D-02 ExpMax= 1.61D+04 ExpMxC= 2.43D+03 IAcc=2 IRadAn=         4 AccDes= 0.00D+00
 Harris functional with IExCor=  205 and IRadAn=       4 diagonalized for initial guess.
 HarFok:  IExCor=  205 AccDes= 0.00D+00 IRadAn=         4 IDoV= 1 UseB2=F ITyADJ=14
 ICtDFT=  3500011 ScaDFX=  1.000000  1.000000  1.000000  1.000000
 FoFCou: FMM=F IPFlag=           0 FMFlag=      100000 FMFlg1=           0
         NFxFlg=           0 DoJE=T BraDBF=F KetDBF=T FulRan=T
         wScrn=  0.000000 ICntrl=     500 IOpCl=  0 I1Cent=   200000004 NGrid=           0
         NMat0=    1 NMatS0=      1 NMatT0=    0 NMatD0=    1 NMtDS0=    0 NMtDT0=    0
 Petite list used in FoFCou.
 Keep R1 ints in memory in canonical form, NReq=11772916.
 Requested convergence on RMS density matrix=1.00D-08 within 128 cycles.
 Requested convergence on MAX density matrix=1.00D-06.
 Requested convergence on             energy=1.00D-06.
 No special actions if energy rises.
 SCF Done:  E(RHF) =  -559.687441241     A.U. after   12 cycles
            NFock= 12  Conv=0.50D-08     -V/T= 1.9992
 Calling FoFJK, ICntrl=      2127 FMM=F ISym2X=0 I1Cent= 0 IOpClX= 0 NMat=1 NMatS=1 NMatT=0.
 ***** Axes restored to original set *****
 -------------------------------------------------------------------
 Center     Atomic                   Forces (Hartrees/Bohr)
 Number     Number              X              Y              Z
 -------------------------------------------------------------------
      1        6          -0.000038212   -0.003157285   -0.000840422
      2        6           0.000293933   -0.002230612   -0.000591067
      3        6           0.004824553    0.000484044    0.000168327
      4        6           0.000439843    0.000839301    0.000226818
      5        6          -0.001036895    0.002695025    0.000708611
      6        6          -0.003820371    0.000513821    0.000105449
      7        1           0.000486758   -0.000066225   -0.000013612
      8        1           0.000168289   -0.000513503   -0.000135235
      9        1           0.000395153    0.000913728    0.000246361
     10        1           0.000514937    0.000138814    0.000041140
     11        1          -0.000089728   -0.000009838   -0.000003349
     12       14          -0.002142880    0.003379207    0.000881522
     13        1           0.000270786   -0.000605491    0.000476724
     14        1           0.000280511   -0.000289653   -0.000710370
     15        6          -0.001875513   -0.004736078   -0.001275435
     16        1           0.000077033    0.000557990    0.000149091
     17        1           0.000623169    0.000954599    0.000616395
     18        1           0.000628634    0.001132154   -0.000050947
 -------------------------------------------------------------------
 Cartesian Forces:  Max     0.004824553 RMS     0.001463002

 GradGradGradGradGradGradGradGradGradGradGradGradGradGradGradGradGradGrad
 Berny optimization.
 Using GEDIIS/GDIIS optimizer.
 FormGI is forming the generalized inverse of G from B-inverse, IUseBI=4.
 GSVD:  received Info=                   1 from GESDD.
 Internal  Forces:  Max     0.004083140 RMS     0.000937162
 Search for a local minimum.
 Step number   2 out of a maximum of   97 on scan point     1 out of    19
 All quantities printed in internal units (Hartrees-Bohrs-Radians)
 Mixed Optimization -- En-DIIS/RFO-DIIS
 Update second derivatives using D2CorX and points    1    2
 DE= -2.85D-03 DEPred=-2.93D-03 R= 9.73D-01
 TightC=F SS=  1.41D+00  RLast= 1.57D-01 DXNew= 5.0454D-01 4.7136D-01
 Trust test= 9.73D-01 RLast= 1.57D-01 DXMaxT set to 4.71D-01
 ITU=  1  0
 Use linear search instead of GDIIS.
     Eigenvalues ---    0.00239   0.00964   0.02070   0.02070   0.02070
     Eigenvalues ---    0.02070   0.02070   0.02070   0.02070   0.02070
     Eigenvalues ---    0.03065   0.05166   0.05525   0.05594   0.08990
     Eigenvalues ---    0.11362   0.14899   0.16000   0.16000   0.16000
     Eigenvalues ---    0.16000   0.16000   0.16000   0.16049   0.16956
     Eigenvalues ---    0.17593   0.18253   0.18605   0.21712   0.22000
     Eigenvalues ---    0.22013   0.23453   0.24962   0.36767   0.37230
     Eigenvalues ---    0.37230   0.37230   0.37230   0.37230   0.37230
     Eigenvalues ---    0.37356   0.41136   0.41585   0.45239   0.45389
     Eigenvalues ---    0.45389   0.538681000.000001000.000001000.00000
     Eigenvalues --- 1000.000001000.000001000.000001000.000001000.00000
     Eigenvalues --- 1000.000001000.000001000.000001000.000001000.00000
     Eigenvalues --- 1000.000001000.000001000.000001000.000001000.00000
     Eigenvalues --- 1000.000001000.000001000.000001000.000001000.00000
     Eigenvalues --- 1000.000001000.000001000.000001000.000001000.00000
     Eigenvalues --- 1000.000001000.000001000.000001000.000001000.00000
     Eigenvalues --- 1000.000001000.000001000.000001000.000001000.00000
     Eigenvalues --- 1000.000001000.00000
 RFO step:  Lambda=-2.83180234D-04 EMin= 2.38596593D-03
 Quartic linear search produced a step of -0.00379.
 Iteration  1 RMS(Cart)=  0.00996745 RMS(Int)=  0.00007151
 Iteration  2 RMS(Cart)=  0.00008271 RMS(Int)=  0.00001402
 Iteration  3 RMS(Cart)=  0.00000001 RMS(Int)=  0.00001402
 Iteration  1 RMS(Cart)=  0.00000000 RMS(Int)=  0.00000000
 Variable       Old X    -DE/DX   Delta X   Delta X   Delta X     New X
                                 (Linear)    (Quad)   (Total)
    R1        2.61759   0.00174   0.00012   0.00230   0.00241   2.62000
    R2        2.61643   0.00408   0.00012   0.00749   0.00761   2.62404
    R3        2.02886  -0.00018  -0.00003  -0.00014  -0.00016   2.02870
    R4        2.63489   0.00300   0.00005   0.00579   0.00584   2.64073
    R5        2.03006   0.00054  -0.00003   0.00186   0.00183   2.03189
    R6        2.63287   0.00228   0.00006   0.00410   0.00416   2.63703
    R7        3.63150  -0.00214   0.00013  -0.01382  -0.01369   3.61781
    R8        2.62126   0.00224   0.00010   0.00354   0.00365   2.62491
    R9        2.02612   0.00102  -0.00002   0.00293   0.00292   2.02903
   R10        2.61377   0.00340   0.00013   0.00584   0.00597   2.61975
   R11        2.02890  -0.00014  -0.00003  -0.00002  -0.00005   2.02885
   R12        2.02813   0.00009  -0.00002   0.00055   0.00052   2.02866
   R13        2.82986  -0.00018  -0.00020   0.00163   0.00144   2.83129
   R14        2.82986  -0.00018  -0.00020   0.00163   0.00144   2.83129
   R15        3.62933  -0.00222   0.00014  -0.01437  -0.01423   3.61510
   R16        2.04790   0.00007  -0.00010   0.00148   0.00138   2.04928
   R17        2.04809   0.00006  -0.00010   0.00147   0.00137   2.04946
   R18        2.04809   0.00006  -0.00010   0.00147   0.00137   2.04946
    A1        2.09373   0.00007   0.00000   0.00058   0.00058   2.09431
    A2        2.09626  -0.00050  -0.00001  -0.00309  -0.00310   2.09316
    A3        2.09320   0.00043   0.00000   0.00252   0.00252   2.09572
    A4        2.11294   0.00006  -0.00007   0.00102   0.00095   2.11389
    A5        2.07666  -0.00015   0.00007  -0.00167  -0.00160   2.07506
    A6        2.09358   0.00009   0.00000   0.00065   0.00065   2.09424
    A7        2.06194   0.00011   0.00012  -0.00164  -0.00152   2.06042
    A8        2.10337  -0.00059  -0.00003  -0.00166  -0.00169   2.10168
    A9        2.11788   0.00047  -0.00009   0.00330   0.00321   2.12109
   A10        2.11108   0.00027  -0.00006   0.00175   0.00169   2.11277
   A11        2.09621  -0.00003  -0.00001   0.00028   0.00028   2.09649
   A12        2.07589  -0.00024   0.00007  -0.00203  -0.00196   2.07393
   A13        2.09500  -0.00004   0.00000   0.00005   0.00005   2.09505
   A14        2.09567  -0.00050   0.00000  -0.00320  -0.00321   2.09246
   A15        2.09251   0.00055   0.00001   0.00315   0.00316   2.09567
   A16        2.09169  -0.00047   0.00001  -0.00176  -0.00175   2.08994
   A17        2.09566   0.00023   0.00000   0.00081   0.00081   2.09646
   A18        2.09584   0.00025  -0.00001   0.00094   0.00094   2.09678
   A19        1.90804  -0.00038   0.00001   0.00001  -0.00001   1.90803
   A20        1.90804  -0.00038   0.00001   0.00001  -0.00001   1.90803
   A21        1.94336   0.00153  -0.00012   0.01175   0.01158   1.95494
   A22        1.87999  -0.00048   0.00012  -0.01449  -0.01437   1.86562
   A23        1.91165  -0.00018   0.00000   0.00091   0.00088   1.91253
   A24        1.91165  -0.00018   0.00000   0.00091   0.00088   1.91253
   A25        1.92167   0.00022  -0.00004   0.00108   0.00104   1.92271
   A26        1.92760   0.00146  -0.00006   0.01034   0.01023   1.93783
   A27        1.92760   0.00146  -0.00006   0.01034   0.01023   1.93783
   A28        1.89234  -0.00094   0.00007  -0.00757  -0.00751   1.88484
   A29        1.89234  -0.00094   0.00007  -0.00757  -0.00751   1.88484
   A30        1.90148  -0.00136   0.00003  -0.00734  -0.00738   1.89410
    D1        0.00000   0.00000   0.00000   0.00000   0.00000   0.00000
    D2       -3.14159   0.00000   0.00000   0.00000   0.00000   3.14159
    D3        3.14159   0.00000   0.00000   0.00000   0.00000  -3.14159
    D4        0.00000   0.00000   0.00000   0.00000   0.00000   0.00000
    D5        0.00000   0.00000   0.00000   0.00000   0.00000   0.00000
    D6        3.14159   0.00000   0.00000   0.00000   0.00000  -3.14159
    D7       -3.14159   0.00000   0.00000   0.00000   0.00000   3.14159
    D8        0.00000   0.00000   0.00000   0.00000   0.00000   0.00000
    D9        0.00000   0.00000   0.00000   0.00000   0.00000   0.00000
   D10        3.14159   0.00000   0.00000   0.00000   0.00000   3.14159
   D11        3.14159   0.00000   0.00000   0.00000   0.00000   3.14159
   D12        0.00000   0.00000   0.00000   0.00000   0.00000   0.00000
   D13        0.00000   0.00000   0.00000   0.00000   0.00000   0.00000
   D14       -3.14159   0.00000   0.00000   0.00000   0.00000   3.14159
   D15       -3.14159   0.00000   0.00000   0.00000   0.00000  -3.14159
   D16        0.00000   0.00000   0.00000   0.00000   0.00000   0.00000
   D17        1.02702  -0.00051   0.00008  -0.00874  -0.00867   1.01835
   D18       -1.02702   0.00051  -0.00008   0.00874   0.00867  -1.01835
   D19        3.14159   0.00000   0.00000   0.00000   0.00000   3.14159
   D20       -2.11458  -0.00051   0.00008  -0.00874  -0.00867  -2.12324
   D21        2.11457   0.00051  -0.00008   0.00874   0.00867   2.12324
   D22        0.00000   0.00000   0.00000   0.00000   0.00000   0.00000
   D23        0.00000   0.00000   0.00000   0.00000   0.00000   0.00000
   D24       -3.14159   0.00000   0.00000   0.00000   0.00000   3.14159
   D25        3.14159   0.00000   0.00000   0.00000   0.00000  -3.14159
   D26        0.00000   0.00000   0.00000   0.00000   0.00000   0.00000
   D27        0.00000   0.00000   0.00000   0.00000   0.00000   0.00000
   D28        3.14159   0.00000   0.00000   0.00000   0.00000  -3.14159
   D29       -3.14159   0.00000   0.00000   0.00000   0.00000   3.14159
   D30        0.00000   0.00000   0.00000   0.00000   0.00000   0.00000
   D31        3.14159   0.00000   0.00000   0.00000   0.00000   3.14159
   D32       -1.05227  -0.00011   0.00002  -0.00216  -0.00216  -1.05443
   D33        1.05227   0.00011  -0.00002   0.00216   0.00216   1.05443
   D34       -1.02913   0.00039  -0.00007   0.00825   0.00819  -1.02094
   D35        1.06020   0.00029  -0.00005   0.00609   0.00603   1.06623
   D36       -3.11845   0.00050  -0.00009   0.01041   0.01035  -3.10810
   D37        1.02913  -0.00039   0.00007  -0.00825  -0.00819   1.02094
   D38        3.11845  -0.00050   0.00009  -0.01041  -0.01035   3.10810
   D39       -1.06020  -0.00029   0.00005  -0.00609  -0.00603  -1.06623
         Item               Value     Threshold  Converged?
 Maximum Force            0.004083     0.000450     NO 
 RMS     Force            0.000943     0.000300     NO 
 Maximum Displacement     0.038235     0.001800     NO 
 RMS     Displacement     0.009938     0.001200     NO 
 Predicted change in Energy=-1.420615D-04
 GradGradGradGradGradGradGradGradGradGradGradGradGradGradGradGradGradGrad

                          Input orientation:                          
 ---------------------------------------------------------------------
 Center     Atomic      Atomic             Coordinates (Angstroms)
 Number     Number       Type             X           Y           Z
 ---------------------------------------------------------------------
      1          6           0       -2.423282   -0.055223   -0.319933
      2          6           0       -1.037059   -0.036539   -0.303617
      3          6           0       -0.334212    1.129211    0.012296
      4          6           0       -1.068483    2.277447    0.311787
      5          6           0       -2.457378    2.263953    0.296831
      6          6           0       -3.136654    1.097488   -0.019079
      7          1           0       -2.943887   -0.961453   -0.565306
      8          1           0       -0.502522   -0.939199   -0.539405
      9          1           0       -0.562255    3.191468    0.559116
     10          1           0       -3.003652    3.158239    0.530295
     11          1           0       -4.210037    1.085260   -0.031117
     12         14           0        1.580178    1.132421    0.028817
     13          1           0        2.088264    0.725679   -1.320693
     14          1           0        2.069227    0.106799    1.005392
     15          6           0        2.290270    2.847605    0.490972
     16          1           0        3.374229    2.815656    0.491343
     17          1           0        1.977620    3.603107   -0.221539
     18          1           0        1.963695    3.150438    1.479833
 ---------------------------------------------------------------------
                    Distance matrix (angstroms):
                    1          2          3          4          5
     1  C    0.000000
     2  C    1.386445   0.000000
     3  C    2.424350   1.397415   0.000000
     4  C    2.770542   2.394628   1.395455   0.000000
     5  C    2.400028   2.769496   2.424136   1.389041   0.000000
     6  C    1.388580   2.403181   2.802797   2.403978   1.386310
     7  H    1.073542   2.135402   3.393362   3.844075   3.373902
     8  H    2.125770   1.075230   2.147329   3.375152   3.844598
     9  H    3.844106   3.374875   2.145675   1.073719   2.126163
    10  H    3.374322   3.843111   3.392814   2.137386   1.073624
    11  H    2.139301   3.376460   3.876317   3.377611   2.137447
    12  Si   4.190443   2.885638   1.914463   2.899406   4.201672
    13  H    4.686724   3.373880   2.794295   3.877889   5.064142
    14  H    4.686723   3.373880   2.794295   3.877889   5.064141
    15  C    5.594778   4.474458   3.173312   3.411511   4.787327
    16  H    6.520065   5.312856   4.101965   4.478794   5.860875
    17  H    5.723722   4.726737   3.394025   3.364602   4.661678
    18  H    5.723722   4.726737   3.394025   3.364602   4.661678
                    6          7          8          9         10
     6  C    0.000000
     7  H    2.138870   0.000000
     8  H    3.370086   2.441604   0.000000
     9  H    3.368470   4.917647   4.274661   0.000000
    10  H    2.136866   4.263306   4.918221   2.441793   0.000000
    11  H    1.073520   2.465265   4.254698   4.253328   2.463288
    12  Si   4.717204   5.020404   2.992010   3.018428   5.036557
    13  H    5.397426   5.360931   3.177170   4.079099   5.938949
    14  H    5.397426   5.360930   3.177170   4.079098   5.938948
    15  C    5.724907   6.559043   4.816767   2.873984   5.303173
    16  H    6.753091   7.436509   5.494596   3.954964   6.387194
    17  H    5.698676   6.721206   5.185044   2.688834   5.057294
    18  H    5.698676   6.721206   5.185044   2.688834   5.057294
                   11         12         13         14         15
    11  H    0.000000
    12  Si   5.790717   0.000000
    13  H    6.439014   1.498255   0.000000
    14  H    6.439014   1.498255   2.407083   0.000000
    15  C    6.755177   1.913027   2.797410   2.797410   0.000000
    16  H    7.796687   2.503165   3.050440   3.050440   1.084430
    17  H    6.683031   2.514941   3.082202   3.706470   1.084530
    18  H    6.683031   2.514941   3.706470   3.082202   1.084530
                   16         17         18
    16  H    0.000000
    17  H    1.754650   0.000000
    18  H    1.754650   1.760617   0.000000
 Stoichiometry    C7H10Si
 Framework group  C1[X(C7H10Si)]
 Deg. of freedom    48
 Full point group                 C1      NOp   1
 Largest Abelian subgroup         C1      NOp   1
 Largest concise Abelian subgroup C1      NOp   1
                         Standard orientation:                         
 ---------------------------------------------------------------------
 Center     Atomic      Atomic             Coordinates (Angstroms)
 Number     Number       Type             X           Y           Z
 ---------------------------------------------------------------------
      1          6           0       -2.296441   -0.962054    0.000000
      2          6           0       -0.940953   -1.253401    0.000000
      3          6           0        0.016484   -0.235519    0.000000
      4          6           0       -0.430899    1.086276    0.000000
      5          6           0       -1.787779    1.383452    0.000000
      6          6           0       -2.722409    0.359576    0.000000
      7          1           0       -3.015612   -1.759101    0.000000
      8          1           0       -0.630866   -2.282947    0.000000
      9          1           0        0.276078    1.894394    0.000000
     10          1           0       -2.111263    2.407183    0.000000
     11          1           0       -3.771469    0.587430    0.000000
     12         14           0        1.883148   -0.660647    0.000000
     13          1           0        2.201751   -1.494164   -1.203541
     14          1           0        2.201750   -1.494163    1.203542
     15          6           0        2.976027    0.909477    0.000000
     16          1           0        4.025074    0.634724    0.000000
     17          1           0        2.788152    1.514428   -0.880308
     18          1           0        2.788152    1.514428    0.880308
 ---------------------------------------------------------------------
 Rotational constants (GHZ):      4.0903435      1.0452200      0.8449667
 Standard basis: 6-31G (6D, 7F)
 There are    96 symmetry adapted cartesian basis functions of A   symmetry.
 There are    96 symmetry adapted basis functions of A   symmetry.
    96 basis functions,   240 primitive gaussians,    96 cartesian basis functions
    33 alpha electrons       33 beta electrons
       nuclear repulsion energy       398.2268327359 Hartrees.
 NAtoms=   18 NActive=   18 NUniq=   18 SFac= 1.00D+00 NAtFMM=   60 NAOKFM=F Big=F
 Integral buffers will be    131072 words long.
 Raffenetti 1 integral format.
 Two-electron integral symmetry is turned on.
 One-electron integrals computed using PRISM.
 NBasis=    96 RedAO= T EigKep=  6.52D-04  NBF=    96
 NBsUse=    96 1.00D-06 EigRej= -1.00D+00 NBFU=    96
 Initial guess from the checkpoint file:  "EtOCSPhenyl_RHF6-31G_scan_0_180.chk"
 B after Tr=     0.000000    0.000000    0.000000
         Rot=    1.000000    0.000000    0.000000    0.000090 Ang=  -0.01 deg.
 ExpMin= 7.78D-02 ExpMax= 1.61D+04 ExpMxC= 2.43D+03 IAcc=2 IRadAn=         4 AccDes= 0.00D+00
 Harris functional with IExCor=  205 and IRadAn=       4 diagonalized for initial guess.
 HarFok:  IExCor=  205 AccDes= 0.00D+00 IRadAn=         4 IDoV= 1 UseB2=F ITyADJ=14
 ICtDFT=  3500011 ScaDFX=  1.000000  1.000000  1.000000  1.000000
 FoFCou: FMM=F IPFlag=           0 FMFlag=      100000 FMFlg1=           0
         NFxFlg=           0 DoJE=T BraDBF=F KetDBF=T FulRan=T
         wScrn=  0.000000 ICntrl=     500 IOpCl=  0 I1Cent=   200000004 NGrid=           0
         NMat0=    1 NMatS0=      1 NMatT0=    0 NMatD0=    1 NMtDS0=    0 NMtDT0=    0
 Petite list used in FoFCou.
 Keep R1 ints in memory in canonical form, NReq=11772916.
 Requested convergence on RMS density matrix=1.00D-08 within 128 cycles.
 Requested convergence on MAX density matrix=1.00D-06.
 Requested convergence on             energy=1.00D-06.
 No special actions if energy rises.
 SCF Done:  E(RHF) =  -559.687595204     A.U. after   11 cycles
            NFock= 11  Conv=0.34D-08     -V/T= 1.9993
 Calling FoFJK, ICntrl=      2127 FMM=F ISym2X=0 I1Cent= 0 IOpClX= 0 NMat=1 NMatS=1 NMatT=0.
 ***** Axes restored to original set *****
 -------------------------------------------------------------------
 Center     Atomic                   Forces (Hartrees/Bohr)
 Number     Number              X              Y              Z
 -------------------------------------------------------------------
      1        6          -0.000021965    0.000049789    0.000013101
      2        6           0.000123859   -0.000367157   -0.000096685
      3        6          -0.000344741    0.000374594    0.000096822
      4        6           0.000331407   -0.000232288   -0.000059033
      5        6          -0.000467864   -0.000216710   -0.000061525
      6        6          -0.000134776    0.000224452    0.000058607
      7        1           0.000060436    0.000137042    0.000036948
      8        1          -0.000013822    0.000213026    0.000056566
      9        1           0.000067363   -0.000089014   -0.000023144
     10        1           0.000114261   -0.000123258   -0.000031854
     11        1           0.000198551   -0.000026648   -0.000005464
     12       14           0.000161586    0.000147175    0.000040485
     13        1           0.000005120    0.000013810    0.000308628
     14        1           0.000009784    0.000165323   -0.000260847
     15        6          -0.000328920   -0.000515011   -0.000139719
     16        1          -0.000171304   -0.000058556   -0.000016982
     17        1           0.000202908    0.000067009    0.000360423
     18        1           0.000208118    0.000236422   -0.000276327
 -------------------------------------------------------------------
 Cartesian Forces:  Max     0.000515011 RMS     0.000197791

 GradGradGradGradGradGradGradGradGradGradGradGradGradGradGradGradGradGrad
 Berny optimization.
 Using GEDIIS/GDIIS optimizer.
 FormGI is forming the generalized inverse of G from B-inverse, IUseBI=4.
 GSVD:  received Info=                   1 from GESDD.
 Internal  Forces:  Max     0.000471752 RMS     0.000151458
 Search for a local minimum.
 Step number   3 out of a maximum of   97 on scan point     1 out of    19
 All quantities printed in internal units (Hartrees-Bohrs-Radians)
 Mixed Optimization -- En-DIIS/RFO-DIIS
 Swapping is turned off.
 Update second derivatives using D2CorX and points    1    2    3
 DE= -1.54D-04 DEPred=-1.42D-04 R= 1.08D+00
 TightC=F SS=  1.41D+00  RLast= 4.58D-02 DXNew= 7.9274D-01 1.3729D-01
 Trust test= 1.08D+00 RLast= 4.58D-02 DXMaxT set to 4.71D-01
 ITU=  1  1  0
     Eigenvalues ---    0.00239   0.00962   0.02070   0.02070   0.02070
     Eigenvalues ---    0.02070   0.02070   0.02070   0.02070   0.02070
     Eigenvalues ---    0.02989   0.04764   0.05415   0.05548   0.09159
     Eigenvalues ---    0.11475   0.13527   0.16000   0.16000   0.16000
     Eigenvalues ---    0.16000   0.16000   0.16026   0.16144   0.17225
     Eigenvalues ---    0.17734   0.18253   0.18657   0.21424   0.22000
     Eigenvalues ---    0.22009   0.23543   0.24898   0.37141   0.37230
     Eigenvalues ---    0.37230   0.37230   0.37230   0.37230   0.37311
     Eigenvalues ---    0.37651   0.41144   0.41610   0.45196   0.45389
     Eigenvalues ---    0.45574   0.557741000.000001000.000001000.00000
     Eigenvalues --- 1000.000001000.000001000.000001000.000001000.00000
     Eigenvalues --- 1000.000001000.000001000.000001000.000001000.00000
     Eigenvalues --- 1000.000001000.000001000.000001000.000001000.00000
     Eigenvalues --- 1000.000001000.000001000.000001000.000001000.00000
     Eigenvalues --- 1000.000001000.000001000.000001000.000001000.00000
     Eigenvalues --- 1000.000001000.000001000.000001000.000001000.00000
     Eigenvalues --- 1000.000001000.000001000.000001000.000001000.00000
     Eigenvalues --- 1000.000001000.00000
 En-DIIS/RFO-DIIS IScMMF=        0 using points:     3    2
 RFO step:  Lambda=-4.71625341D-06.
 DidBck=F Rises=F RFO-DIIS coefs:    1.09578   -0.09578
 Iteration  1 RMS(Cart)=  0.00373828 RMS(Int)=  0.00000873
 Iteration  2 RMS(Cart)=  0.00000978 RMS(Int)=  0.00000288
 Iteration  3 RMS(Cart)=  0.00000000 RMS(Int)=  0.00000288
 Iteration  1 RMS(Cart)=  0.00000000 RMS(Int)=  0.00000000
 Variable       Old X    -DE/DX   Delta X   Delta X   Delta X     New X
                                 (Linear)    (Quad)   (Total)
    R1        2.62000   0.00000   0.00023  -0.00031  -0.00008   2.61992
    R2        2.62404  -0.00005   0.00073  -0.00072   0.00001   2.62404
    R3        2.02870  -0.00015  -0.00002  -0.00040  -0.00042   2.02828
    R4        2.64073  -0.00002   0.00056  -0.00046   0.00010   2.64083
    R5        2.03189  -0.00020   0.00018  -0.00064  -0.00047   2.03142
    R6        2.63703  -0.00042   0.00040  -0.00135  -0.00095   2.63608
    R7        3.61781   0.00009  -0.00131   0.00114  -0.00017   3.61764
    R8        2.62491   0.00025   0.00035   0.00025   0.00060   2.62550
    R9        2.02903  -0.00005   0.00028  -0.00029  -0.00001   2.02902
   R10        2.61975  -0.00029   0.00057  -0.00125  -0.00068   2.61907
   R11        2.02885  -0.00017   0.00000  -0.00045  -0.00046   2.02840
   R12        2.02866  -0.00020   0.00005  -0.00058  -0.00053   2.02813
   R13        2.83129  -0.00028   0.00014  -0.00148  -0.00134   2.82995
   R14        2.83129  -0.00028   0.00014  -0.00148  -0.00134   2.82995
   R15        3.61510  -0.00029  -0.00136  -0.00122  -0.00258   3.61252
   R16        2.04928  -0.00017   0.00013  -0.00043  -0.00030   2.04898
   R17        2.04946  -0.00025   0.00013  -0.00067  -0.00053   2.04893
   R18        2.04946  -0.00025   0.00013  -0.00067  -0.00053   2.04893
    A1        2.09431   0.00007   0.00006   0.00034   0.00040   2.09470
    A2        2.09316  -0.00002  -0.00030   0.00011  -0.00019   2.09297
    A3        2.09572  -0.00005   0.00024  -0.00045  -0.00021   2.09551
    A4        2.11389  -0.00008   0.00009  -0.00033  -0.00024   2.11365
    A5        2.07506   0.00014  -0.00015   0.00086   0.00071   2.07577
    A6        2.09424  -0.00006   0.00006  -0.00053  -0.00047   2.09377
    A7        2.06042   0.00005  -0.00015   0.00013  -0.00002   2.06041
    A8        2.10168  -0.00024  -0.00016  -0.00089  -0.00105   2.10063
    A9        2.12109   0.00018   0.00031   0.00076   0.00107   2.12215
   A10        2.11277   0.00000   0.00016  -0.00004   0.00013   2.11290
   A11        2.09649  -0.00010   0.00003  -0.00071  -0.00068   2.09581
   A12        2.07393   0.00011  -0.00019   0.00074   0.00055   2.07448
   A13        2.09505   0.00002   0.00000   0.00012   0.00012   2.09517
   A14        2.09246  -0.00005  -0.00031  -0.00010  -0.00041   2.09206
   A15        2.09567   0.00002   0.00030  -0.00002   0.00029   2.09596
   A16        2.08994  -0.00006  -0.00017  -0.00022  -0.00039   2.08955
   A17        2.09646   0.00000   0.00008  -0.00010  -0.00002   2.09645
   A18        2.09678   0.00006   0.00009   0.00031   0.00040   2.09719
   A19        1.90803  -0.00008   0.00000   0.00038   0.00038   1.90841
   A20        1.90803  -0.00008   0.00000   0.00038   0.00038   1.90841
   A21        1.95494   0.00047   0.00111   0.00254   0.00364   1.95858
   A22        1.86562  -0.00003  -0.00138  -0.00170  -0.00308   1.86253
   A23        1.91253  -0.00015   0.00008  -0.00090  -0.00082   1.91171
   A24        1.91253  -0.00015   0.00008  -0.00090  -0.00082   1.91171
   A25        1.92271  -0.00025   0.00010  -0.00209  -0.00199   1.92072
   A26        1.93783   0.00042   0.00098   0.00257   0.00354   1.94137
   A27        1.93783   0.00042   0.00098   0.00257   0.00354   1.94137
   A28        1.88484  -0.00011  -0.00072  -0.00079  -0.00151   1.88333
   A29        1.88484  -0.00011  -0.00072  -0.00079  -0.00151   1.88333
   A30        1.89410  -0.00038  -0.00071  -0.00162  -0.00234   1.89176
    D1        0.00000   0.00000   0.00000   0.00000   0.00000   0.00000
    D2        3.14159   0.00000   0.00000   0.00000   0.00000  -3.14159
    D3       -3.14159   0.00000   0.00000   0.00000   0.00000   3.14159
    D4        0.00000   0.00000   0.00000   0.00000   0.00000   0.00000
    D5        0.00000   0.00000   0.00000   0.00000   0.00000   0.00000
    D6       -3.14159   0.00000   0.00000   0.00000   0.00000   3.14159
    D7        3.14159   0.00000   0.00000   0.00000   0.00000  -3.14159
    D8        0.00000   0.00000   0.00000   0.00000   0.00000   0.00000
    D9        0.00000   0.00000   0.00000   0.00000   0.00000   0.00000
   D10        3.14159   0.00000   0.00000   0.00000   0.00000   3.14159
   D11        3.14159   0.00000   0.00000   0.00000   0.00000  -3.14159
   D12        0.00000   0.00000   0.00000   0.00000   0.00000   0.00000
   D13        0.00000   0.00000   0.00000   0.00000   0.00000   0.00000
   D14        3.14159   0.00000   0.00000   0.00000   0.00000  -3.14159
   D15       -3.14159   0.00000   0.00000   0.00000   0.00000   3.14159
   D16        0.00000   0.00000   0.00000   0.00000   0.00000   0.00000
   D17        1.01835  -0.00006  -0.00083  -0.00081  -0.00164   1.01671
   D18       -1.01835   0.00006   0.00083   0.00081   0.00164  -1.01671
   D19        3.14159   0.00000   0.00000   0.00000   0.00000   3.14159
   D20       -2.12324  -0.00006  -0.00083  -0.00081  -0.00164  -2.12488
   D21        2.12324   0.00006   0.00083   0.00081   0.00164   2.12488
   D22        0.00000   0.00000   0.00000   0.00000   0.00000   0.00000
   D23        0.00000   0.00000   0.00000   0.00000   0.00000   0.00000
   D24        3.14159   0.00000   0.00000   0.00000   0.00000  -3.14159
   D25       -3.14159   0.00000   0.00000   0.00000   0.00000   3.14159
   D26        0.00000   0.00000   0.00000   0.00000   0.00000   0.00000
   D27        0.00000   0.00000   0.00000   0.00000   0.00000   0.00000
   D28       -3.14159   0.00000   0.00000   0.00000   0.00000   3.14159
   D29        3.14159   0.00000   0.00000   0.00000   0.00000  -3.14159
   D30        0.00000   0.00000   0.00000   0.00000   0.00000   0.00000
   D31        3.14159   0.00000   0.00000   0.00000   0.00000  -3.14159
   D32       -1.05443  -0.00004  -0.00021  -0.00071  -0.00092  -1.05535
   D33        1.05443   0.00004   0.00021   0.00071   0.00092   1.05535
   D34       -1.02094   0.00011   0.00078   0.00155   0.00234  -1.01860
   D35        1.06623   0.00007   0.00058   0.00084   0.00141   1.06764
   D36       -3.10810   0.00015   0.00099   0.00226   0.00326  -3.10484
   D37        1.02094  -0.00011  -0.00078  -0.00155  -0.00234   1.01860
   D38        3.10810  -0.00015  -0.00099  -0.00226  -0.00326   3.10484
   D39       -1.06623  -0.00007  -0.00058  -0.00084  -0.00141  -1.06764
         Item               Value     Threshold  Converged?
 Maximum Force            0.000472     0.000450     NO 
 RMS     Force            0.000152     0.000300     YES
[...]
           A24        108.75846 108.95036 109.18245 109.49069
           A25        110.17260 110.05320 109.96326 109.93884
           A26        110.93856 111.05740 111.17822 111.27141
           A27        111.38089 111.37233 111.34336 111.27509
           A28        108.18948 108.11037 108.01486 107.91843
           A29        107.78256 107.79048 107.83723 107.91885
           A30        108.25830 108.33614 108.38048 108.39399
           D1          -0.14478  -0.12868  -0.07239   0.00074
           D2         179.78821 179.78637 179.86795 180.00076
           D3         179.97013 179.97698 179.98953 180.00109
           D4          -0.09688  -0.10797  -0.07012   0.00112
           D5          -0.13163  -0.11881  -0.07456  -0.00019
           D6        -179.92812-179.94351-179.96834 180.00179
           D7         179.75325 179.77531 179.86338-180.00055
           D8          -0.04325  -0.04938  -0.03041   0.00144
           D9           0.48935   0.43653   0.25792  -0.00182
           D10       -179.56189-179.58878-179.76320 179.99987
           D11       -179.44280-179.47748-179.68170-180.00184
           D12          0.50596   0.49721   0.29717  -0.00015
           D13         -0.57205  -0.51004  -0.30440   0.00241
           D14        179.19036 179.27437 179.56745-179.99647
           D15        179.47863 179.51496 179.71646-179.99926
           D16         -0.75896  -0.70063  -0.41169   0.00186
           D17       -151.79452-141.85229-131.82351-121.72724
           D18         91.34055 101.46823 111.59348 121.73041
           D19        -30.00007 -20.00011 -10.00006  -0.00010
           D20         28.15305  38.12183  48.15489  58.27449
           D21        -88.71188 -78.55765 -68.42812 -58.26786
           D22        149.94750 159.97401 169.97834 180.00163
           D23          0.31003   0.27532   0.16502  -0.00192
           D24       -179.94380-179.94646-179.96682-180.00182
           D25       -179.45450-179.51111-179.70810 179.99697
           D26          0.29168   0.26712   0.16007  -0.00293
           D27          0.05007   0.04637   0.02877   0.00078
           D28        179.84656 179.87110 179.92261-180.00121
           D29       -179.69565-179.73153-179.83922 180.00068
           D30          0.10084   0.09321   0.05462  -0.00131
           D31       -176.75960-176.54649-177.76462-179.99570
           D32        -56.98110 -56.86832 -58.18706 -60.49500
           D33         63.68619  63.97335  62.77423  60.50072
           D34        -56.04982 -55.52427 -56.42464 -58.35450
           D35         63.72868  64.15391  63.15292  61.14620
           D36       -175.60403-175.00443-175.88580-177.85807
           D37         61.10246  61.39788  60.34443  58.36553
           D38       -179.11904-178.92394 179.92199 177.86624
           D39        -58.45175 -58.08228 -59.11673 -61.13804
                          Input orientation:                          
 ---------------------------------------------------------------------
 Center     Atomic      Atomic             Coordinates (Angstroms)
 Number     Number       Type             X           Y           Z
 ---------------------------------------------------------------------
      1          6           0       -2.217982    0.559208    0.987828
      2          6           0       -0.874134    0.892797    0.872381
      3          6           0       -0.412126    1.656963   -0.199100
      4          6           0       -1.340329    2.078507   -1.155159
      5          6           0       -2.682121    1.748226   -1.044311
      6          6           0       -3.123548    0.986483    0.029690
      7          1           0       -2.552938   -0.029830    1.820314
      8          1           0       -0.188849    0.551868    1.625369
      9          1           0       -1.017327    2.668818   -1.993433
     10          1           0       -3.379139    2.081824   -1.789273
     11          1           0       -4.162043    0.729982    0.116912
     12         14           0        1.435883    2.125509   -0.373430
     13          1           0        1.567505    3.616682   -0.415297
     14          1           0        1.957130    1.609266   -1.678961
     15          6           0        2.497956    1.431458    1.056775
     16          1           0        3.534699    1.718594    0.920548
     17          1           0        2.168077    1.817321    2.014799
     18          1           0        2.453350    0.348681    1.090338
 ---------------------------------------------------------------------
                    Distance matrix (angstroms):
                    1          2          3          4          5
     1  C    0.000000
     2  C    1.389437   0.000000
     3  C    2.423835   1.394802   0.000000
     4  C    2.769646   2.394612   1.397608   0.000000
     5  C    2.399745   2.770249   2.423961   1.386282   0.000000
     6  C    1.385872   2.403906   2.802445   2.403384   1.388737
     7  H    1.073404   2.137335   3.392106   3.843039   3.374056
     8  H    2.126945   1.073704   2.144709   3.374592   3.843809
     9  H    3.844469   3.374558   2.147032   1.074941   2.125996
    10  H    3.373268   3.843597   3.392981   2.135148   1.073355
    11  H    2.137061   3.377512   3.875698   3.376205   2.139026
    12  Si   4.202029   2.899621   1.914436   2.884556   4.189317
    13  H    5.064269   3.878050   2.793955   3.371777   4.684667
    14  H    5.064182   3.877980   2.793857   3.371615   4.684521
    15  C    4.796420   3.419817   3.177523   4.477026   5.598937
    16  H    5.868735   4.485764   4.103028   5.310744   6.520000
    17  H    4.677075   3.378596   3.403603   4.735585   5.734749
    18  H    4.677197   3.378716   3.403705   4.735669   5.734851
                    6          7          8          9         10
     6  C    0.000000
     7  H    2.136545   0.000000
     8  H    3.368611   2.442396   0.000000
     9  H    3.370377   4.917872   4.273591   0.000000
    10  H    2.138627   4.262723   4.917164   2.442212   0.000000
    11  H    1.073253   2.463354   4.253639   4.254630   2.464540
    12  Si   4.716810   5.036734   3.018492   2.989621   5.019059
    13  H    5.396475   5.939113   4.079483   3.173376   5.358441
    14  H    5.396354   5.939047   4.079449   3.173159   5.358288
    15  C    5.731859   5.313180   2.883729   4.815811   6.562257
    16  H    6.757357   6.397335   3.965203   5.487727   7.434798
    17  H    5.712464   5.073241   2.703354   5.190160   6.731458
    18  H    5.712579   5.073368   2.703471   5.190210   6.731558
                   11         12         13         14         15
    11  H    0.000000
    12  Si   5.790052   0.000000
    13  H    6.437702   1.497557   0.000000
    14  H    6.437591   1.497537   2.403825   0.000000
    15  C    6.762470   1.911856   2.794269   2.794344   0.000000
    16  H    7.801476   2.498997   3.042543   3.042716   1.084362
    17  H    6.697365   2.516888   3.082815   3.705624   1.084214
    18  H    6.697491   2.516937   3.705603   3.082909   1.084215
                   16         17         18
    16  H    0.000000
    17  H    1.753508   0.000000
    18  H    1.753513   1.758668   0.000000
 Stoichiometry    C7H10Si
 Framework group  C1[X(C7H10Si)]
 Deg. of freedom    48
 Full point group                 C1      NOp   1
 Largest Abelian subgroup         C1      NOp   1
 Largest concise Abelian subgroup C1      NOp   1
                         Standard orientation:                         
 ---------------------------------------------------------------------
 Center     Atomic      Atomic             Coordinates (Angstroms)
 Number     Number       Type             X           Y           Z
 ---------------------------------------------------------------------
      1          6           0       -1.790741   -1.383043    0.000000
      2          6           0       -0.433133   -1.087345   -0.000005
      3          6           0        0.015415    0.233365    0.000008
      4          6           0       -0.940558    1.252887   -0.000013
      5          6           0       -2.296165    0.962873    0.000004
      6          6           0       -2.723845   -0.358368    0.000002
      7          1           0       -2.114955   -2.406313    0.000007
      8          1           0        0.273482   -1.895760   -0.000019
      9          1           0       -0.628547    2.281550   -0.000061
     10          1           0       -3.014509    1.760414    0.000017
     11          1           0       -3.773004   -0.584504    0.000035
     12         14           0        1.882073    0.658398    0.000006
     13          1           0        2.200545    1.493032    1.201937
     14          1           0        2.200394    1.493108   -1.201888
     15          6           0        2.981844   -0.905473   -0.000013
     16          1           0        4.028384   -0.621577    0.000062
     17          1           0        2.801083   -1.513463    0.879302
     18          1           0        2.801196   -1.513442   -0.879367
 ---------------------------------------------------------------------
 Rotational constants (GHZ):      4.0976018      1.0437373      0.8442740

 **********************************************************************

            Population analysis using the SCF density.

 **********************************************************************

 Orbital symmetries:
       Occupied  (A) (A) (A) (A) (A) (A) (A) (A) (A) (A) (A) (A)
                 (A) (A) (A) (A) (A) (A) (A) (A) (A) (A) (A) (A)
                 (A) (A) (A) (A) (A) (A) (A) (A) (A)
       Virtual   (A) (A) (A) (A) (A) (A) (A) (A) (A) (A) (A) (A)
                 (A) (A) (A) (A) (A) (A) (A) (A) (A) (A) (A) (A)
                 (A) (A) (A) (A) (A) (A) (A) (A) (A) (A) (A) (A)
                 (A) (A) (A) (A) (A) (A) (A) (A) (A) (A) (A) (A)
                 (A) (A) (A) (A) (A) (A) (A) (A) (A) (A) (A) (A)
                 (A) (A) (A)
 The electronic state is 1-A.
 Alpha  occ. eigenvalues --  -68.77934 -11.23980 -11.23949 -11.23847 -11.23585
 Alpha  occ. eigenvalues --  -11.23558 -11.23297 -11.21149  -6.14258  -4.24802
 Alpha  occ. eigenvalues --   -4.24767  -4.24715  -1.15654  -1.01951  -1.01732
 Alpha  occ. eigenvalues --   -0.95105  -0.82698  -0.82279  -0.72461  -0.67819
 Alpha  occ. eigenvalues --   -0.62547  -0.62304  -0.59032  -0.56691  -0.56550
 Alpha  occ. eigenvalues --   -0.53702  -0.50767  -0.48989  -0.45752  -0.44615
 Alpha  occ. eigenvalues --   -0.42942  -0.33681  -0.33369
 Alpha virt. eigenvalues --    0.12902   0.14511   0.17362   0.19216   0.23311
 Alpha virt. eigenvalues --    0.25204   0.26918   0.28434   0.29106   0.29401
 Alpha virt. eigenvalues --    0.31259   0.32588   0.34505   0.35179   0.35346
 Alpha virt. eigenvalues --    0.40817   0.42679   0.44837   0.47181   0.48271
 Alpha virt. eigenvalues --    0.51075   0.54668   0.56735   0.69570   0.75679
 Alpha virt. eigenvalues --    0.78540   0.78655   0.80793   0.80871   0.84304
 Alpha virt. eigenvalues --    0.84970   0.85964   0.88675   0.88982   0.89493
 Alpha virt. eigenvalues --    0.90890   0.91536   0.96944   1.01518   1.03231
 Alpha virt. eigenvalues --    1.11085   1.14437   1.14545   1.17017   1.18605
 Alpha virt. eigenvalues --    1.21757   1.23012   1.23403   1.24011   1.26881
 Alpha virt. eigenvalues --    1.27678   1.28967   1.29581   1.34702   1.35539
 Alpha virt. eigenvalues --    1.39955   1.43077   1.46909   1.48794   1.54493
 Alpha virt. eigenvalues --    1.69791   1.74230   2.16644
          Condensed to atoms (all electrons):
               1          2          3          4          5          6
     1  C    4.989332   0.508769  -0.056966  -0.043770  -0.052354   0.512505
     2  C    0.508769   4.988526   0.482221  -0.030818  -0.043318  -0.043574
     3  C   -0.056966   0.482221   5.470707   0.476815  -0.055045  -0.046594
     4  C   -0.043770  -0.030818   0.476815   4.977086   0.514719  -0.043398
     5  C   -0.052354  -0.043318  -0.055045   0.514719   4.985876   0.507742
     6  C    0.512505  -0.043574  -0.046594  -0.043398   0.507742   4.987517
     7  H    0.375697  -0.026827   0.003930  -0.000056   0.002719  -0.026343
     8  H   -0.026318   0.379483  -0.024435   0.002982   0.000079   0.002810
     9  H    0.000118   0.002864  -0.025664   0.378063  -0.024795   0.002698
    10  H    0.002732  -0.000047   0.003711  -0.026178   0.375357  -0.026256
    11  H   -0.024747   0.002759  -0.000036   0.002713  -0.024754   0.375359
    12  Si   0.002632  -0.010956   0.239993  -0.002043   0.002523  -0.001062
    13  H   -0.000011  -0.001701  -0.033128   0.002128   0.000119  -0.000001
    14  H   -0.000011  -0.001701  -0.033138   0.002130   0.000119  -0.000001
    15  C    0.000353   0.009815  -0.042013  -0.001381  -0.000008  -0.000011
    16  H   -0.000001  -0.000007   0.000932  -0.000003   0.000000   0.000000
    17  H   -0.000033  -0.000829   0.000823   0.000051   0.000000  -0.000001
    18  H   -0.000033  -0.000829   0.000823   0.000051   0.000000  -0.000001
               7          8          9         10         11         12
     1  C    0.375697  -0.026318   0.000118   0.002732  -0.024747   0.002632
     2  C   -0.026827   0.379483   0.002864  -0.000047   0.002759  -0.010956
     3  C    0.003930  -0.024435  -0.025664   0.003711  -0.000036   0.239993
     4  C   -0.000056   0.002982   0.378063  -0.026178   0.002713  -0.002043
     5  C    0.002719   0.000079  -0.024795   0.375357  -0.024754   0.002523
     6  C   -0.026343   0.002810   0.002698  -0.026256   0.375359  -0.001062
     7  H    0.472811  -0.000383   0.000006  -0.000108  -0.000551  -0.000094
     8  H   -0.000383   0.475262  -0.000107   0.000006  -0.000119  -0.002477
     9  H    0.000006  -0.000107   0.471465  -0.000403  -0.000117   0.001159
    10  H   -0.000108   0.000006  -0.000403   0.471618  -0.000526  -0.000094
    11  H   -0.000551  -0.000119  -0.000117  -0.000526   0.468606   0.000010
    12  Si  -0.000094  -0.002477   0.001159  -0.000094   0.000010  11.652131
    13  H    0.000000  -0.000030  -0.000292   0.000001   0.000000   0.373775
    14  H    0.000000  -0.000030  -0.000292   0.000001   0.000000   0.373778
    15  C    0.000005  -0.001947  -0.000016   0.000000   0.000000   0.320973
    16  H    0.000000   0.000092   0.000001   0.000000   0.000000  -0.017497
    17  H    0.000000   0.000052  -0.000001   0.000000   0.000000  -0.017463
    18  H    0.000000   0.000052  -0.000001   0.000000   0.000000  -0.017461
              13         14         15         16         17         18
     1  C   -0.000011  -0.000011   0.000353  -0.000001  -0.000033  -0.000033
     2  C   -0.001701  -0.001701   0.009815  -0.000007  -0.000829  -0.000829
     3  C   -0.033128  -0.033138  -0.042013   0.000932   0.000823   0.000823
     4  C    0.002128   0.002130  -0.001381  -0.000003   0.000051   0.000051
     5  C    0.000119   0.000119  -0.000008   0.000000   0.000000   0.000000
     6  C   -0.000001  -0.000001  -0.000011   0.000000  -0.000001  -0.000001
     7  H    0.000000   0.000000   0.000005   0.000000   0.000000   0.000000
     8  H   -0.000030  -0.000030  -0.001947   0.000092   0.000052   0.000052
     9  H   -0.000292  -0.000292  -0.000016   0.000001  -0.000001  -0.000001
    10  H    0.000001   0.000001   0.000000   0.000000   0.000000   0.000000
    11  H    0.000000   0.000000   0.000000   0.000000   0.000000   0.000000
    12  Si   0.373775   0.373778   0.320973  -0.017497  -0.017463  -0.017461
    13  H    0.924402  -0.032472  -0.028006  -0.000119  -0.000955   0.000845
    14  H   -0.032472   0.924402  -0.028000  -0.000119   0.000845  -0.000955
    15  C   -0.028006  -0.028000   5.524514   0.371470   0.369313   0.369314
    16  H   -0.000119  -0.000119   0.371470   0.507848  -0.023044  -0.023043
    17  H   -0.000955   0.000845   0.369313  -0.023044   0.514829  -0.023996
    18  H    0.000845  -0.000955   0.369314  -0.023043  -0.023996   0.514823
 Mulliken charges:
               1
     1  C   -0.187892
     2  C   -0.213829
     3  C   -0.362936
     4  C   -0.209093
     5  C   -0.188979
     6  C   -0.201388
     7  H    0.199194
     8  H    0.195028
     9  H    0.195312
    10  H    0.200187
    11  H    0.201402
    12  Si   1.102175
    13  H   -0.204555
    14  H   -0.204557
    15  C   -0.864375
    16  H    0.183491
    17  H    0.180407
    18  H    0.180408
 Sum of Mulliken charges =   0.00000
 Mulliken charges with hydrogens summed into heavy atoms:
               1
     1  C    0.011301
     2  C   -0.018801
     3  C   -0.362936
     4  C   -0.013781
     5  C    0.011208
     6  C    0.000013
    12  Si   0.693064
    15  C   -0.320069
 Electronic spatial extent (au):  <R**2>=           1383.5373
 Charge=              0.0000 electrons
 Dipole moment (field-independent basis, Debye):
    X=             -0.3965    Y=             -0.6790    Z=              0.0000  Tot=              0.7863
 Quadrupole moment (field-independent basis, Debye-Ang):
   XX=            -52.8853   YY=            -54.2895   ZZ=            -62.2112
   XY=             -1.5714   XZ=             -0.0003   YZ=             -0.0001
 Traceless Quadrupole moment (field-independent basis, Debye-Ang):
   XX=              3.5767   YY=              2.1725   ZZ=             -5.7492
   XY=             -1.5714   XZ=             -0.0003   YZ=             -0.0001
 Octapole moment (field-independent basis, Debye-Ang**2):
  XXX=            -20.7668  YYY=             -5.9642  ZZZ=             -0.0004  XYY=            -11.9986
  XXY=             -3.3878  XXZ=              0.0001  XZZ=              1.8130  YZZ=             -4.6034
  YYZ=             -0.0002  XYZ=              0.0000
 Hexadecapole moment (field-independent basis, Debye-Ang**3):
 XXXX=          -1370.3245 YYYY=           -407.3958 ZZZZ=           -100.1487 XXXY=             -3.6654
 XXXZ=             -0.0038 YYYX=            -10.9028 YYYZ=             -0.0004 ZZZX=             -0.0015
 ZZZY=             -0.0002 XXYY=           -313.4156 XXZZ=           -282.0024 YYZZ=            -97.0488
 XXYZ=             -0.0006 YYXZ=             -0.0007 ZZXY=            -11.4686
 N-N= 3.982048011457D+02 E-N=-2.115866202021D+03  KE= 5.600910513785D+02
 1\1\GINC-CORN03\Scan\RHF\6-31G\C7H10Si1\JOEBURG\07-Sep-2016\0\\# opt=m
 odredundant hf/6-31g geom=connectivity\\Title Card Required\\0,1\C,-2.
 2179820294,0.5592077458,0.9878276203\C,-0.8741344322,0.8927969594,0.87
 2380759\C,-0.4121263639,1.6569630545,-0.1990999695\C,-1.3403289697,2.0
 785074306,-1.1551594343\C,-2.6821206701,1.7482264836,-1.0443109674\C,-
 3.1235480774,0.9864833963,0.0296902874\H,-2.5529383154,-0.0298297405,1
 .8203144041\H,-0.1888486091,0.551867989,1.6253690043\H,-1.0173269075,2
 .6688175589,-1.9934326159\H,-3.3791389877,2.0818237691,-1.7892732506\H
 ,-4.1620432296,0.7299822121,0.1169123336\Si,1.4358828798,2.1255085929,
 -0.3734297138\H,1.5675054912,3.6166820673,-0.4152968716\H,1.9571299262
 ,1.6092655039,-1.6789605575\C,2.4979559248,1.4314577005,1.0567750845\H
 ,3.5346992423,1.7185942791,0.9205481789\H,2.1680766294,1.8173212657,2.
 0147990568\H,2.4533502084,0.3486806002,1.0903383174\\Version=EM64L-G09
 RevD.01\State=1-A\HF=-559.6876025,-559.6876447,-559.6877592,-559.68792
 16,-559.6881011,-559.6882569,-559.6883564,-559.6884022,-559.6884173,-5
 59.6884204,-559.6884178,-559.6884035,-559.6883578,-559.6882553,-559.68
 80956,-559.6879146,-559.6877546,-559.6876432,-559.6876026\RMSD=6.869e-
 09,2.802e-09,8.277e-09,4.785e-09,1.548e-09,8.194e-09,6.999e-09,8.415e-
 09,2.795e-09,3.396e-09,7.480e-09,2.569e-09,7.250e-09,2.395e-09,5.486e-
 09,8.512e-09,3.629e-09,2.552e-09,4.670e-09\PG=C01 [X(C7H10Si1)]\\@


 Sometimes the fool who rushes in gets the job done.
                                    -- Al Bernstein
 Job cpu time:       0 days  0 hours  6 minutes 16.6 seconds.
 File lengths (MBytes):  RWF=      9 Int=      0 D2E=      0 Chk=      4 Scr=      1
 Normal termination of Gaussian 09 at Wed Sep  7 12:13:37 2016.
