# data file for 500 4ATP_NH3+_S- precursors and 750 Cu2+ atoms.
-4 110 xlo xhi
-4 110 ylo yhi
-4 110 zlo zhi

8250 atoms
7500 bonds
12000 angles
15000 dihedrals

10 atom types
5 bond types
6 angle types
8 dihedral types

Masses

	1	1.007940
	2	1.007940
	3	1.007940
	4	12.011000
	5	12.011000
	6	12.011000
	7	12.011000
	8	14.006740
	9	32.066000
	10	63.546000

Angle Coeffs

	1	0.00282100	119.99845663
	2	0.00110200	119.99722289
	3	0.00071270	109.47122085
	4	0.00083470	109.47122104
	5	0.00187100	120.01134316
	6	0.00141100	119.98077035

Bond Coeffs

	1	26.28860000	1.39516000
	2	20.38800000	1.09961030
	3	17.26870000	1.47000000
	4	15.18740000	1.78000000
	5	31.53220000	1.00000000

Dihedral Coeffs

	1	-0.60270000	180.00	1.80570000	0.00	0.61130000	180.00
	2	2.01256000	180.00	0.00000000	0.00	0.00000000	0.00
	3	1.18360000	0.00	0.19560000	0.00	0.00000000	0.00
	4	0.00000000	0.00	0.00949600	180.00	0.00000000	0.00
	5	3.46290000	180.00	-0.33120000	0.00	0.03201000	-180.00
	6	2.49320000	0.00	0.00000000	0.00	0.00000000	0.00
	7	2.91420000	180.00	-0.25860000	0.00	-0.00447900	0.00
	8	2.87850000	0.00	0.00000000	0.00	0.00000000	0.00

MiddleBondTorsion Coeffs

	1	0	0	0	0
	2	0	0	0	0
	3	0	0	0	0
	4	0	0	0	0
	5	0	0	0	0
	6	0	0	0	0
	7	0	0	0	0
	8	0	0	0	0

EndBondTorsion Coeffs

	1	0	0	0	0	0	0	0	0
	2	0	0	0	0	0	0	0	0
	3	0	0	0	0	0	0	0	0
	4	0	0	0	0	0	0	0	0
	5	0	0	0	0	0	0	0	0
	6	0	0	0	0	0	0	0	0
	7	0	0	0	0	0	0	0	0
	8	0	0	0	0	0	0	0	0

AngleTorsion Coeffs

	1	0	0	0	0	0	0	0	0
	2	0	0	0	0	0	0	0	0
	3	0	0	0	0	0	0	0	0
	4	0	0	0	0	0	0	0	0
	5	0	0	0	0	0	0	0	0
	6	0	0	0	0	0	0	0	0
	7	0	0	0	0	0	0	0	0
	8	0	0	0	0	0	0	0	0

AngleAngleTorsion Coeffs

	1	0	0	0
	2	0	0	0
	3	0	0	0
	4	0	0	0
	5	0	0	0
	6	0	0	0
	7	0	0	0
	8	0	0	0

BondBond13 Coeffs

	1	0	0	0
	2	0	0	0
	3	0	0	0
	4	0	0	0
	5	0	0	0
	6	0	0	0
	7	0	0	0
	8	0	0	0

PairIJ Coeffs

	1	1	0.00130100	2.71640000	10.00	10.00
	1	2	0.00161100	2.67820000	10.00	10.00
	1	3	0.00161100	2.67820000	10.00	10.00
	1	4	0.00198700	3.35060000	10.00	10.00
	1	5	0.00198700	3.35060000	10.00	10.00
	1	6	0.00198700	3.35060000	10.00	10.00
	1	7	0.00198700	3.35060000	10.00	10.00
	1	8	0.00335900	3.20820000	10.00	10.00
	1	9	0.00503800	3.35820000	10.00	10.00
	1	10	0.00203500	2.22670000	10.00	10.00
	2	2	0.00199500	2.64000000	10.00	10.00
	2	3	0.00199500	2.64000000	10.00	10.00
	2	4	0.00246100	3.31240000	10.00	10.00
	2	5	0.00246100	3.31240000	10.00	10.00
	2	6	0.00246100	3.31240000	10.00	10.00
	2	7	0.00246100	3.31240000	10.00	10.00
	2	8	0.00415900	3.17000000	10.00	10.00
	2	9	0.00623900	3.32000000	10.00	10.00
	2	10	0.00252000	2.18850000	10.00	10.00
	3	3	0.00199500	2.64000000	10.00	10.00
	3	4	0.00246100	3.31240000	10.00	10.00
	3	5	0.00246100	3.31240000	10.00	10.00
	3	6	0.00246100	3.31240000	10.00	10.00
	3	7	0.00246100	3.31240000	10.00	10.00
	3	8	0.00415900	3.17000000	10.00	10.00
	3	9	0.00623900	3.32000000	10.00	10.00
	3	10	0.00252000	2.18850000	10.00	10.00
	4	4	0.00303600	3.98480000	10.00	10.00
	4	5	0.00303600	3.98480000	10.00	10.00
	4	6	0.00303600	3.98480000	10.00	10.00
	4	7	0.00303600	3.98480000	10.00	10.00
	4	8	0.00513100	3.84240000	10.00	10.00
	4	9	0.00769600	3.99240000	10.00	10.00
	4	10	0.00310800	2.86090000	10.00	10.00
	5	5	0.00303600	3.98480000	10.00	10.00
	5	6	0.00303600	3.98480000	10.00	10.00
	5	7	0.00303600	3.98480000	10.00	10.00
	5	8	0.00513100	3.84240000	10.00	10.00
	5	9	0.00769600	3.99240000	10.00	10.00
	5	10	0.00310800	2.86090000	10.00	10.00
	6	6	0.00303600	3.98480000	10.00	10.00
	6	7	0.00303600	3.98480000	10.00	10.00
	6	8	0.00513100	3.84240000	10.00	10.00
	6	9	0.00769600	3.99240000	10.00	10.00
	6	10	0.00310800	2.86090000	10.00	10.00
	7	7	0.00303600	3.98480000	10.00	10.00
	7	8	0.00513100	3.84240000	10.00	10.00
	7	9	0.00769600	3.99240000	10.00	10.00
	7	10	0.00310800	2.86090000	10.00	10.00
	8	8	0.00867300	3.70000000	10.00	10.00
	8	9	0.01300900	3.85000000	10.00	10.00
	8	10	0.00525400	2.71850000	10.00	10.00
	9	9	0.01951400	4.00000000	10.00	10.00
	9	10	0.00788100	2.86850000	10.00	10.00
	10	10	0.00318300	1.73700000	10.00	10.00

Atoms

1	1	6	-0.0940	61.8059	21.0340	61.3757
2	1	7	0.3010	63.1657	21.0133	61.0643
3	1	6	-0.0940	63.8282	22.2004	60.7529
4	1	5	-0.2120	63.1305	23.4089	60.7516
5	1	4	-0.0400	61.7709	23.4295	61.0624
6	1	5	-0.2120	61.1086	22.2420	61.3749
7	1	3	0.0430	61.2839	20.0980	61.6216
8	1	3	0.0430	64.9001	22.1843	60.5080
9	1	2	0.1240	63.6530	24.3449	60.5059
10	1	2	0.1240	60.0368	22.2585	61.6201
11	1	8	-0.0910	61.0356	24.7024	61.0611
12	1	1	0.2420	61.0791	25.1134	61.9717
13	1	1	0.2420	61.4468	25.3243	60.3947
14	1	9	-0.6180	64.0554	19.4715	61.0667
15	1	1	0.2420	60.0806	24.5354	60.8161
16	2	6	-0.0940	18.1458	26.7839	55.7221
17	2	7	0.3010	19.5056	26.7632	55.4107
18	2	6	-0.0940	20.1681	27.9503	55.0993
19	2	5	-0.2120	19.4704	29.1588	55.0980
20	2	4	-0.0400	18.1108	29.1794	55.4088
21	2	5	-0.2120	17.4486	27.9919	55.7213
22	2	3	0.0430	17.6238	25.8479	55.9680
23	2	3	0.0430	21.2401	27.9342	54.8544
24	2	2	0.1240	19.9930	30.0948	54.8523
25	2	2	0.1240	16.3768	28.0084	55.9665
26	2	8	-0.0910	17.3755	30.4523	55.4075
27	2	1	0.2420	17.4191	30.8633	56.3181
28	2	1	0.2420	17.7868	31.0742	54.7411
29	2	9	-0.6180	20.3953	25.2214	55.4131
30	2	1	0.2420	16.4205	30.2853	55.1625
31	3	6	-0.0940	52.6769	13.4367	81.1273
32	3	7	0.3010	54.0367	13.4160	80.8159
33	3	6	-0.0940	54.6992	14.6031	80.5045
34	3	5	-0.2120	54.0015	15.8116	80.5032
35	3	4	-0.0400	52.6419	15.8322	80.8140
36	3	5	-0.2120	51.9796	14.6447	81.1265
37	3	3	0.0430	52.1549	12.5007	81.3732
38	3	3	0.0430	55.7711	14.5870	80.2596
39	3	2	0.1240	54.5240	16.7475	80.2575
40	3	2	0.1240	50.9078	14.6612	81.3717
41	3	8	-0.0910	51.9066	17.1051	80.8127
42	3	1	0.2420	51.9501	17.5161	81.7233
43	3	1	0.2420	52.3179	17.7270	80.1463
44	3	9	-0.6180	54.9264	11.8742	80.8183
45	3	1	0.2420	50.9516	16.9381	80.5677
46	4	6	-0.0940	69.4979	18.0878	68.9955
47	4	7	0.3010	70.8577	18.0671	68.6841
48	4	6	-0.0940	71.5201	19.2543	68.3727
49	4	5	-0.2120	70.8225	20.4628	68.3714
50	4	4	-0.0400	69.4629	20.4834	68.6822
51	4	5	-0.2120	68.8006	19.2959	68.9947
52	4	3	0.0430	68.9759	17.1518	69.2414
53	4	3	0.0430	72.5921	19.2381	68.1278
54	4	2	0.1240	71.3450	21.3987	68.1257
55	4	2	0.1240	67.7288	19.3124	69.2399
56	4	8	-0.0910	68.7275	21.7562	68.6809
57	4	1	0.2420	68.7711	22.1673	69.5915
58	4	1	0.2420	69.1388	22.3781	68.0145
59	4	9	-0.6180	71.7473	16.5254	68.6865
60	4	1	0.2420	67.7725	21.5892	68.4359
61	5	6	-0.0940	45.0722	58.3039	28.7821
62	5	7	0.3010	46.4320	58.2832	28.4707
63	5	6	-0.0940	47.0944	59.4704	28.1593
64	5	5	-0.2120	46.3968	60.6789	28.1580
65	5	4	-0.0400	45.0372	60.6995	28.4688
66	5	5	-0.2120	44.3749	59.5120	28.7813
67	5	3	0.0430	44.5502	57.3679	29.0280
68	5	3	0.0430	48.1664	59.4542	27.9145
69	5	2	0.1240	46.9193	61.6148	27.9123
70	5	2	0.1240	43.3031	59.5285	29.0265
71	5	8	-0.0910	44.3019	61.9723	28.4676
72	5	1	0.2420	44.3454	62.3834	29.3781
73	5	1	0.2420	44.7131	62.5942	27.8011
74	5	9	-0.6180	47.3216	56.7415	28.4731
75	5	1	0.2420	43.3468	61.8053	28.2226
76	6	6	-0.0940	30.0046	54.9535	37.6827
77	6	7	0.3010	31.3644	54.9327	37.3713
78	6	6	-0.0940	32.0269	56.1199	37.0599
79	6	5	-0.2120	31.3292	57.3284	37.0586
80	6	4	-0.0400	29.9696	57.3490	37.3695
81	6	5	-0.2120	29.3073	56.1615	37.6819
82	6	3	0.0430	29.4826	54.0174	37.9287
83	6	3	0.0430	33.0988	56.1037	36.8151
84	6	2	0.1240	31.8517	58.2643	36.8130
85	6	2	0.1240	28.2355	56.1780	37.9271
86	6	8	-0.0910	29.2343	58.6219	37.3682
87	6	1	0.2420	29.2778	59.0329	38.2788
88	6	1	0.2420	29.6455	59.2437	36.7017
89	6	9	-0.6180	32.2540	53.3910	37.3737
90	6	1	0.2420	28.2792	58.4549	37.1232
91	7	6	-0.0940	53.9354	34.7287	100.2081
92	7	7	0.3010	55.2952	34.7080	99.8968
93	7	6	-0.0940	55.9576	35.8951	99.5853
94	7	5	-0.2120	55.2600	37.1036	99.5840
95	7	4	-0.0400	53.9004	37.1242	99.8949
96	7	5	-0.2120	53.2381	35.9367	100.2073
97	7	3	0.0430	53.4133	33.7927	100.4541
98	7	3	0.0430	57.0296	35.8790	99.3405
99	7	2	0.1240	55.7825	38.0395	99.3384
100	7	2	0.1240	52.1663	35.9532	100.4526
101	7	8	-0.0910	53.1650	38.3971	99.8936
102	7	1	0.2420	53.2086	38.8081	100.8042
103	7	1	0.2420	53.5763	39.0190	99.2272
104	7	9	-0.6180	56.1848	33.1662	99.8992
105	7	1	0.2420	52.2100	38.2301	99.6486
106	8	6	-0.0940	13.6896	39.0649	15.0658
107	8	7	0.3010	15.0494	39.0442	14.7544
108	8	6	-0.0940	15.7118	40.2314	14.4430
109	8	5	-0.2120	15.0142	41.4399	14.4417
110	8	4	-0.0400	13.6546	41.4605	14.7525
111	8	5	-0.2120	12.9923	40.2730	15.0650
112	8	3	0.0430	13.1675	38.1289	15.3117
113	8	3	0.0430	16.7838	40.2152	14.1981
114	8	2	0.1240	15.5367	42.3758	14.1960
115	8	2	0.1240	11.9205	40.2895	15.3102
116	8	8	-0.0910	12.9192	42.7333	14.7512
117	8	1	0.2420	12.9628	43.1444	15.6618
118	8	1	0.2420	13.3305	43.3552	14.0848
119	8	9	-0.6180	15.9390	37.5025	14.7568
120	8	1	0.2420	11.9642	42.5663	14.5062
121	9	6	-0.0940	60.4211	12.4948	95.3653
122	9	7	0.3010	61.7809	12.4740	95.0539
123	9	6	-0.0940	62.4434	13.6612	94.7425
124	9	5	-0.2120	61.7457	14.8697	94.7412
125	9	4	-0.0400	60.3861	14.8903	95.0520
126	9	5	-0.2120	59.7238	13.7028	95.3645
127	9	3	0.0430	59.8991	11.5587	95.6112
128	9	3	0.0430	63.5153	13.6450	94.4976
129	9	2	0.1240	62.2682	15.8056	94.4955
130	9	2	0.1240	58.6521	13.7193	95.6097
131	9	8	-0.0910	59.6508	16.1632	95.0507
132	9	1	0.2420	59.6944	16.5742	95.9613
133	9	1	0.2420	60.0621	16.7850	94.3843
134	9	9	-0.6180	62.6706	10.9323	95.0563
135	9	1	0.2420	58.6958	15.9962	94.8057
136	10	6	-0.0940	39.3662	75.3746	101.2213
137	10	7	0.3010	40.7260	75.3539	100.9099
138	10	6	-0.0940	41.3885	76.5411	100.5985
139	10	5	-0.2120	40.6908	77.7496	100.5972
140	10	4	-0.0400	39.3313	77.7702	100.9080
141	10	5	-0.2120	38.6690	76.5827	101.2205
142	10	3	0.0430	38.8442	74.4386	101.4673
143	10	3	0.0430	42.4605	76.5249	100.3537
144	10	2	0.1240	41.2134	78.6855	100.3515
145	10	2	0.1240	37.5972	76.5992	101.4657
146	10	8	-0.0910	38.5959	79.0431	100.9068
147	10	1	0.2420	38.6395	79.4541	101.8173
148	10	1	0.2420	39.0072	79.6649	100.2403
149	10	9	-0.6180	41.6157	73.8122	100.9123
150	10	1	0.2420	37.6409	78.8761	100.6618
151	11	6	-0.0940	45.3239	10.8770	46.2068
152	11	7	0.3010	46.6838	10.8563	45.8955
153	11	6	-0.0940	47.3462	12.0435	45.5840
154	11	5	-0.2120	46.6485	13.2520	45.5827
155	11	4	-0.0400	45.2890	13.2725	45.8936
156	11	5	-0.2120	44.6267	12.0851	46.2060
157	11	3	0.0430	44.8019	9.9410	46.4528
158	11	3	0.0430	48.4182	12.0273	45.3392
159	11	2	0.1240	47.1711	14.1879	45.3371
160	11	2	0.1240	43.5549	12.1016	46.4513
161	11	8	-0.0910	44.5536	14.5454	45.8923
162	11	1	0.2420	44.5972	14.9564	46.8029
163	11	1	0.2420	44.9649	15.1673	45.2259
164	11	9	-0.6180	47.5734	9.3146	45.8978
165	11	1	0.2420	43.5986	14.3784	45.6473
166	12	6	-0.0940	89.9299	44.3731	84.9120
167	12	7	0.3010	91.2897	44.3524	84.6006
168	12	6	-0.0940	91.9521	45.5396	84.2892
169	12	5	-0.2120	91.2545	46.7481	84.2879
170	12	4	-0.0400	89.8949	46.7687	84.5987
171	12	5	-0.2120	89.2326	45.5812	84.9112
172	12	3	0.0430	89.4079	43.4371	85.1579
173	12	3	0.0430	93.0241	45.5234	84.0443
174	12	2	0.1240	91.7770	47.6840	84.0422
175	12	2	0.1240	88.1608	45.5977	85.1564
176	12	8	-0.0910	89.1596	48.0416	84.5974
177	12	1	0.2420	89.2031	48.4526	85.5080
178	12	1	0.2420	89.5708	48.6634	83.9310
179	12	9	-0.6180	92.1793	42.8107	84.6030
180	12	1	0.2420	88.2045	47.8746	84.3524
181	13	6	-0.0940	41.5014	69.3939	87.1442
182	13	7	0.3010	42.8612	69.3732	86.8329
183	13	6	-0.0940	43.5236	70.5604	86.5214
184	13	5	-0.2120	42.8260	71.7689	86.5201
185	13	4	-0.0400	41.4664	71.7895	86.8310
186	13	5	-0.2120	40.8041	70.6020	87.1434
187	13	3	0.0430	40.9794	68.4579	87.3902
188	13	3	0.0430	44.5956	70.5442	86.2766
189	13	2	0.1240	43.3485	72.7048	86.2745
190	13	2	0.1240	39.7323	70.6185	87.3887
191	13	8	-0.0910	40.7311	73.0623	86.8297
192	13	1	0.2420	40.7746	73.4734	87.7403
193	13	1	0.2420	41.1423	73.6842	86.1632
194	13	9	-0.6180	43.7508	67.8315	86.8352
195	13	1	0.2420	39.7760	72.8953	86.5847
196	14	6	-0.0940	42.3360	53.1586	56.6250
197	14	7	0.3010	43.6958	53.1379	56.3136
198	14	6	-0.0940	44.3582	54.3250	56.0021
199	14	5	-0.2120	43.6606	55.5335	56.0008
200	14	4	-0.0400	42.3010	55.5541	56.3117
201	14	5	-0.2120	41.6387	54.3666	56.6242
202	14	3	0.0430	41.8140	52.2226	56.8709
203	14	3	0.0430	45.4302	54.3089	55.7573
204	14	2	0.1240	44.1831	56.4694	55.7552
205	14	2	0.1240	40.5669	54.3831	56.8694
206	14	8	-0.0910	41.5656	56.8270	56.3104
207	14	1	0.2420	41.6092	57.2380	57.2210
208	14	1	0.2420	41.9769	57.4489	55.6440
209	14	9	-0.6180	44.5854	51.5961	56.3160
210	14	1	0.2420	40.6106	56.6600	56.0654
211	15	6	-0.0940	79.0285	26.7935	27.4034
212	15	7	0.3010	80.3883	26.7728	27.0920
213	15	6	-0.0940	81.0508	27.9600	26.7806
214	15	5	-0.2120	80.3531	29.1685	26.7793
215	15	4	-0.0400	78.9935	29.1890	27.0901
216	15	5	-0.2120	78.3312	28.0016	27.4026
217	15	3	0.0430	78.5065	25.8575	27.6494
218	15	3	0.0430	82.1227	27.9438	26.5358
219	15	2	0.1240	80.8756	30.1044	26.5337
220	15	2	0.1240	77.2594	28.0181	27.6478
221	15	8	-0.0910	78.2582	30.4619	27.0889
222	15	1	0.2420	78.3017	30.8729	27.9995
223	15	1	0.2420	78.6695	31.0838	26.4224
224	15	9	-0.6180	81.2780	25.2311	27.0944
225	15	1	0.2420	77.3032	30.2949	26.8439
226	16	6	-0.0940	26.6465	56.2928	32.0843
227	16	7	0.3010	28.0063	56.2720	31.7729
228	16	6	-0.0940	28.6688	57.4592	31.4614
229	16	5	-0.2120	27.9711	58.6677	31.4601
230	16	4	-0.0400	26.6115	58.6883	31.7710
231	16	5	-0.2120	25.9493	57.5008	32.0835
232	16	3	0.0430	26.1245	55.3567	32.3302
233	16	3	0.0430	29.7408	57.4430	31.2166
234	16	2	0.1240	28.4937	59.6036	31.2145
235	16	2	0.1240	24.8775	57.5173	32.3287
236	16	8	-0.0910	25.8762	59.9612	31.7697
237	16	1	0.2420	25.9198	60.3722	32.6803
238	16	1	0.2420	26.2875	60.5830	31.1033
239	16	9	-0.6180	28.8960	54.7303	31.7753
240	16	1	0.2420	24.9212	59.7942	31.5247
241	17	6	-0.0940	58.2942	86.9707	10.5970
242	17	7	0.3010	59.6540	86.9499	10.2856
243	17	6	-0.0940	60.3164	88.1371	9.9742
244	17	5	-0.2120	59.6188	89.3456	9.9729
245	17	4	-0.0400	58.2592	89.3662	10.2837
246	17	5	-0.2120	57.5969	88.1787	10.5962
247	17	3	0.0430	57.7722	86.0346	10.8429
248	17	3	0.0430	61.3884	88.1209	9.7293
249	17	2	0.1240	60.1413	90.2815	9.7272
250	17	2	0.1240	56.5251	88.1952	10.8414
251	17	8	-0.0910	57.5239	90.6391	10.2824
252	17	1	0.2420	57.5674	91.0501	11.1930
253	17	1	0.2420	57.9351	91.2609	9.6160
254	17	9	-0.6180	60.5436	85.4082	10.2880
255	17	1	0.2420	56.5688	90.4721	10.0374
256	18	6	-0.0940	97.0996	99.7486	40.9058
257	18	7	0.3010	98.4594	99.7279	40.5944
258	18	6	-0.0940	99.1219	100.9151	40.2829
259	18	5	-0.2120	98.4242	102.1236	40.2816
260	18	4	-0.0400	97.0646	102.1441	40.5925
261	18	5	-0.2120	96.4023	100.9567	40.9050
262	18	3	0.0430	96.5776	98.8126	41.1517
263	18	3	0.0430	100.1938	100.8989	40.0381
264	18	2	0.1240	98.9467	103.0595	40.0360
265	18	2	0.1240	95.3305	100.9732	41.1502
266	18	8	-0.0910	96.3293	103.4170	40.5912
267	18	1	0.2420	96.3729	103.8280	41.5018
268	18	1	0.2420	96.7406	104.0389	39.9248
269	18	9	-0.6180	99.3491	98.1862	40.5968
270	18	1	0.2420	95.3743	103.2500	40.3462
271	19	6	-0.0940	40.8024	97.3995	54.0015
272	19	7	0.3010	42.1622	97.3787	53.6901
273	19	6	-0.0940	42.8247	98.5659	53.3787
274	19	5	-0.2120	42.1270	99.7744	53.3774
275	19	4	-0.0400	40.7675	99.7950	53.6882
276	19	5	-0.2120	40.1052	98.6075	54.0007
277	19	3	0.0430	40.2804	96.4634	54.2474
278	19	3	0.0430	43.8967	98.5497	53.1339
279	19	2	0.1240	42.6496	100.7103	53.1317
280	19	2	0.1240	39.0334	98.6240	54.2459
281	19	8	-0.0910	40.0321	101.0679	53.6869
282	19	1	0.2420	40.0757	101.4789	54.5975
283	19	1	0.2420	40.4434	101.6897	53.0205
284	19	9	-0.6180	43.0519	95.8370	53.6925
285	19	1	0.2420	39.0771	100.9009	53.4419
286	20	6	-0.0940	8.2850	87.9543	56.7348
287	20	7	0.3010	9.6448	87.9336	56.4234
288	20	6	-0.0940	10.3072	89.1208	56.1120
289	20	5	-0.2120	9.6096	90.3293	56.1107
290	20	4	-0.0400	8.2500	90.3499	56.4216
291	20	5	-0.2120	7.5877	89.1624	56.7340
292	20	3	0.0430	7.7630	87.0183	56.9808
293	20	3	0.0430	11.3792	89.1046	55.8672
294	20	2	0.1240	10.1321	91.2652	55.8651
295	20	2	0.1240	6.5159	89.1789	56.9792
296	20	8	-0.0910	7.5147	91.6227	56.4203
297	20	1	0.2420	7.5582	92.0338	57.3309
298	20	1	0.2420	7.9259	92.2446	55.7538
299	20	9	-0.6180	10.5344	86.3919	56.4258
300	20	1	0.2420	6.5596	91.4557	56.1753
301	21	6	-0.0940	67.2366	6.2568	58.3476
302	21	7	0.3010	68.5965	6.2360	58.0362
303	21	6	-0.0940	69.2589	7.4232	57.7248
304	21	5	-0.2120	68.5613	8.6317	57.7234
305	21	4	-0.0400	67.2017	8.6523	58.0343
306	21	5	-0.2120	66.5394	7.4648	58.3468
307	21	3	0.0430	66.7146	5.3207	58.5935
308	21	3	0.0430	70.3309	7.4070	57.4799
309	21	2	0.1240	69.0838	9.5676	57.4778
310	21	2	0.1240	65.4676	7.4813	58.5920
311	21	8	-0.0910	66.4663	9.9252	58.0330
312	21	1	0.2420	66.5099	10.3362	58.9436
313	21	1	0.2420	66.8776	10.5470	57.3666
314	21	9	-0.6180	69.4861	4.6943	58.0386
315	21	1	0.2420	65.5113	9.7582	57.7880
316	22	6	-0.0940	32.8803	92.4068	70.2918
317	22	7	0.3010	34.2401	92.3861	69.9804
318	22	6	-0.0940	34.9025	93.5733	69.6690
319	22	5	-0.2120	34.2049	94.7818	69.6677
320	22	4	-0.0400	32.8453	94.8024	69.9785
321	22	5	-0.2120	32.1830	93.6149	70.2910
322	22	3	0.0430	32.3583	91.4708	70.5378
323	22	3	0.0430	35.9745	93.5571	69.4242
324	22	2	0.1240	34.7274	95.7177	69.4220
325	22	2	0.1240	31.1112	93.6314	70.5362
326	22	8	-0.0910	32.1100	96.0752	69.9773
327	22	1	0.2420	32.1535	96.4863	70.8878
328	22	1	0.2420	32.5212	96.6971	69.3108
329	22	9	-0.6180	35.1297	90.8444	69.9828
330	22	1	0.2420	31.1549	95.9082	69.7323
331	23	6	-0.0940	101.6987	36.6326	25.7312
332	23	7	0.3010	103.0585	36.6119	25.4198
333	23	6	-0.0940	103.7210	37.7991	25.1084
334	23	5	-0.2120	103.0233	39.0076	25.1071
335	23	4	-0.0400	101.6637	39.0282	25.4179
336	23	5	-0.2120	101.0014	37.8407	25.7304
337	23	3	0.0430	101.1767	35.6966	25.9771
338	23	3	0.0430	104.7929	37.7829	24.8636
339	23	2	0.1240	103.5458	39.9435	24.8614
340	23	2	0.1240	99.9296	37.8572	25.9756
341	23	8	-0.0910	100.9284	40.3010	25.4166
342	23	1	0.2420	100.9719	40.7121	26.3272
343	23	1	0.2420	101.3397	40.9229	24.7502
344	23	9	-0.6180	103.9482	35.0702	25.4222
345	23	1	0.2420	99.9734	40.1340	25.1716
346	24	6	-0.0940	20.2322	97.8917	80.0427
347	24	7	0.3010	21.5920	97.8709	79.7313
348	24	6	-0.0940	22.2544	99.0581	79.4199
349	24	5	-0.2120	21.5568	100.2666	79.4186
350	24	4	-0.0400	20.1972	100.2872	79.7294
351	24	5	-0.2120	19.5349	99.0997	80.0419
352	24	3	0.0430	19.7102	96.9556	80.2886
353	24	3	0.0430	23.3264	99.0419	79.1750
354	24	2	0.1240	22.0793	101.2025	79.1729
355	24	2	0.1240	18.4631	99.1162	80.2871
356	24	8	-0.0910	19.4619	101.5601	79.7281
357	24	1	0.2420	19.5054	101.9711	80.6387
358	24	1	0.2420	19.8731	102.1819	79.0617
359	24	9	-0.6180	22.4816	96.3292	79.7337
360	24	1	0.2420	18.5068	101.3931	79.4831
361	25	6	-0.0940	50.6661	10.3535	97.5573
362	25	7	0.3010	52.0259	10.3327	97.2459
363	25	6	-0.0940	52.6884	11.5199	96.9345
364	25	5	-0.2120	51.9907	12.7284	96.9332
365	25	4	-0.0400	50.6311	12.7490	97.2440
366	25	5	-0.2120	49.9688	11.5615	97.5565
367	25	3	0.0430	50.1441	9.4174	97.8032
368	25	3	0.0430	53.7603	11.5037	96.6897
369	25	2	0.1240	52.5132	13.6643	96.6875
370	25	2	0.1240	48.8971	11.5780	97.8017
371	25	8	-0.0910	49.8958	14.0219	97.2428
372	25	1	0.2420	49.9394	14.4329	98.1533
373	25	1	0.2420	50.3071	14.6437	96.5763
374	25	9	-0.6180	52.9156	8.7910	97.2483
375	25	1	0.2420	48.9408	13.8549	96.9978
376	26	6	-0.0940	66.3119	42.5489	90.0745
377	26	7	0.3010	67.6717	42.5282	89.7631
378	26	6	-0.0940	68.3341	43.7153	89.4517
379	26	5	-0.2120	67.6365	44.9238	89.4504
380	26	4	-0.0400	66.2769	44.9444	89.7612
381	26	5	-0.2120	65.6146	43.7569	90.0737
382	26	3	0.0430	65.7899	41.6129	90.3205
383	26	3	0.0430	69.4061	43.6992	89.2069
384	26	2	0.1240	68.1590	45.8598	89.2048
385	26	2	0.1240	64.5428	43.7734	90.3189
386	26	8	-0.0910	65.5416	46.2173	89.7600
387	26	1	0.2420	65.5851	46.6283	90.6706
388	26	1	0.2420	65.9528	46.8392	89.0935
389	26	9	-0.6180	68.5613	40.9864	89.7655
390	26	1	0.2420	64.5865	46.0503	89.5150
391	27	6	-0.0940	72.1994	36.2435	67.4886
392	27	7	0.3010	73.5592	36.2227	67.1772
393	27	6	-0.0940	74.2217	37.4099	66.8658
394	27	5	-0.2120	73.5240	38.6184	66.8645
395	27	4	-0.0400	72.1644	38.6390	67.1753
396	27	5	-0.2120	71.5022	37.4515	67.4878
397	27	3	0.0430	71.6774	35.3074	67.7345
398	27	3	0.0430	75.2937	37.3937	66.6209
399	27	2	0.1240	74.0466	39.5543	66.6188
400	27	2	0.1240	70.4304	37.4680	67.7330
401	27	8	-0.0910	71.4291	39.9119	67.1740
402	27	1	0.2420	71.4727	40.3229	68.0846
403	27	1	0.2420	71.8404	40.5337	66.5076
404	27	9	-0.6180	74.4489	34.6810	67.1796
405	27	1	0.2420	70.4741	39.7449	66.9290
406	28	6	-0.0940	50.4778	68.4028	27.1966
407	28	7	0.3010	51.8377	68.3821	26.8852
408	28	6	-0.0940	52.5001	69.5692	26.5738
409	28	5	-0.2120	51.8024	70.7777	26.5725
410	28	4	-0.0400	50.4429	70.7983	26.8833
411	28	5	-0.2120	49.7806	69.6108	27.1958
412	28	3	0.0430	49.9558	67.4668	27.4426
413	28	3	0.0430	53.5721	69.5531	26.3290
414	28	2	0.1240	52.3250	71.7136	26.3269
415	28	2	0.1240	48.7088	69.6273	27.4410
416	28	8	-0.0910	49.7075	72.0712	26.8821
417	28	1	0.2420	49.7511	72.4822	27.7927
418	28	1	0.2420	50.1188	72.6931	26.2156
419	28	9	-0.6180	52.7273	66.8403	26.8876
420	28	1	0.2420	48.7525	71.9042	26.6371
421	29	6	-0.0940	22.9979	85.4815	47.9662
422	29	7	0.3010	24.3577	85.4608	47.6548
423	29	6	-0.0940	25.0201	86.6480	47.3433
424	29	5	-0.2120	24.3225	87.8565	47.3420
425	29	4	-0.0400	22.9629	87.8771	47.6529
426	29	5	-0.2120	22.3006	86.6896	47.9654
427	29	3	0.0430	22.4759	84.5455	48.2121
428	29	3	0.0430	26.0921	86.6318	47.0985
429	29	2	0.1240	24.8450	88.7924	47.0964
430	29	2	0.1240	21.2288	86.7061	48.2106
431	29	8	-0.0910	22.2276	89.1500	47.6516
432	29	1	0.2420	22.2711	89.5610	48.5622
433	29	1	0.2420	22.6388	89.7718	46.9852
434	29	9	-0.6180	25.2473	83.9191	47.6572
435	29	1	0.2420	21.2725	88.9830	47.4066
436	30	6	-0.0940	33.9490	26.5587	12.0151
437	30	7	0.3010	35.3088	26.5379	11.7037
438	30	6	-0.0940	35.9712	27.7251	11.3923
439	30	5	-0.2120	35.2736	28.9336	11.3910
440	30	4	-0.0400	33.9140	28.9542	11.7018
441	30	5	-0.2120	33.2517	27.7667	12.0143
442	30	3	0.0430	33.4270	25.6226	12.2610
443	30	3	0.0430	37.0432	27.7089	11.1475
444	30	2	0.1240	35.7961	29.8695	11.1453
445	30	2	0.1240	32.1799	27.7832	12.2595
446	30	8	-0.0910	33.1786	30.2271	11.7006
447	30	1	0.2420	33.2222	30.6381	12.6111
448	30	1	0.2420	33.5899	30.8489	11.0341
449	30	9	-0.6180	36.1984	24.9962	11.7061
450	30	1	0.2420	32.2236	30.0601	11.4555
451	31	6	-0.0940	26.1848	54.8745	69.7678
452	31	7	0.3010	27.5447	54.8538	69.4564
453	31	6	-0.0940	28.2071	56.0410	69.1450
454	31	5	-0.2120	27.5094	57.2495	69.1437
455	31	4	-0.0400	26.1499	57.2701	69.4545
456	31	5	-0.2120	25.4876	56.0826	69.7670
457	31	3	0.0430	25.6628	53.9385	70.0137
458	31	3	0.0430	29.2791	56.0248	68.9002
459	31	2	0.1240	28.0320	58.1854	68.8980
460	31	2	0.1240	24.4158	56.0991	70.0122
461	31	8	-0.0910	25.4145	58.5429	69.4532
462	31	1	0.2420	25.4581	58.9540	70.3638
463	31	1	0.2420	25.8258	59.1648	68.7868
464	31	9	-0.6180	28.4343	53.3121	69.4588
465	31	1	0.2420	24.4595	58.3759	69.2082
466	32	6	-0.0940	35.5323	8.9798	10.2564
467	32	7	0.3010	36.8921	8.9590	9.9450
468	32	6	-0.0940	37.5545	10.1462	9.6336
469	32	5	-0.2120	36.8569	11.3547	9.6323
470	32	4	-0.0400	35.4973	11.3753	9.9432
471	32	5	-0.2120	34.8350	10.1878	10.2556
472	32	3	0.0430	35.0103	8.0437	10.5024
473	32	3	0.0430	38.6265	10.1300	9.3888
474	32	2	0.1240	37.3794	12.2906	9.3867
475	32	2	0.1240	33.7632	10.2043	10.5008
476	32	8	-0.0910	34.7620	12.6482	9.9419
477	32	1	0.2420	34.8055	13.0592	10.8525
478	32	1	0.2420	35.1732	13.2700	9.2754
479	32	9	-0.6180	37.7817	7.4173	9.9474
480	32	1	0.2420	33.8069	12.4812	9.6969
481	33	6	-0.0940	9.7564	60.7667	94.0465
482	33	7	0.3010	11.1162	60.7460	93.7351
483	33	6	-0.0940	11.7787	61.9331	93.4237
484	33	5	-0.2120	11.0810	63.1416	93.4224
485	33	4	-0.0400	9.7214	63.1622	93.7332
486	33	5	-0.2120	9.0591	61.9747	94.0457
487	33	3	0.0430	9.2344	59.8307	94.2925
488	33	3	0.0430	12.8506	61.9170	93.1789
489	33	2	0.1240	11.6035	64.0776	93.1767
490	33	2	0.1240	7.9874	61.9912	94.2909
491	33	8	-0.0910	8.9861	64.4351	93.7320
492	33	1	0.2420	9.0297	64.8461	94.6425
493	33	1	0.2420	9.3974	65.0570	93.0655
494	33	9	-0.6180	12.0059	59.2042	93.7375
495	33	1	0.2420	8.0311	64.2681	93.4870
496	34	6	-0.0940	53.2074	84.7887	26.9505
497	34	7	0.3010	54.5672	84.7680	26.6392
498	34	6	-0.0940	55.2297	85.9552	26.3277
499	34	5	-0.2120	54.5320	87.1637	26.3264
500	34	4	-0.0400	53.1724	87.1843	26.6373
501	34	5	-0.2120	52.5101	85.9968	26.9497
502	34	3	0.0430	52.6854	83.8527	27.1965
503	34	3	0.0430	56.3016	85.9390	26.0829
504	34	2	0.1240	55.0545	88.0996	26.0808
505	34	2	0.1240	51.4384	86.0133	27.1950
506	34	8	-0.0910	52.4371	88.4571	26.6360
507	34	1	0.2420	52.4807	88.8682	27.5466
508	34	1	0.2420	52.8484	89.0790	25.9695
509	34	9	-0.6180	55.4569	83.2263	26.6415
510	34	1	0.2420	51.4821	88.2901	26.3910
511	35	6	-0.0940	93.2251	99.4635	49.3580
512	35	7	0.3010	94.5849	99.4428	49.0467
513	35	6	-0.0940	95.2474	100.6300	48.7352
514	35	5	-0.2120	94.5497	101.8385	48.7339
515	35	4	-0.0400	93.1901	101.8591	49.0448
516	35	5	-0.2120	92.5279	100.6716	49.3572
517	35	3	0.0430	92.7031	98.5275	49.6040
518	35	3	0.0430	96.3194	100.6138	48.4904
519	35	2	0.1240	95.0723	102.7744	48.4883
520	35	2	0.1240	91.4561	100.6881	49.6025
521	35	8	-0.0910	92.4548	103.1319	49.0435
522	35	1	0.2420	92.4984	103.5430	49.9541
523	35	1	0.2420	92.8661	103.7538	48.3771
524	35	9	-0.6180	95.4746	97.9011	49.0491
525	35	1	0.2420	91.4998	102.9649	48.7985
526	36	6	-0.0940	86.4126	67.0280	94.1989
527	36	7	0.3010	87.7724	67.0073	93.8876
528	36	6	-0.0940	88.4349	68.1945	93.5761
529	36	5	-0.2120	87.7372	69.4030	93.5748
530	36	4	-0.0400	86.3776	69.4236	93.8857
531	36	5	-0.2120	85.7153	68.2361	94.1981
532	36	3	0.0430	85.8906	66.0920	94.4449
533	36	3	0.0430	89.5068	68.1783	93.3313
534	36	2	0.1240	88.2597	70.3389	93.3292
535	36	2	0.1240	84.6435	68.2526	94.4434
536	36	8	-0.0910	85.6423	70.6964	93.8844
537	36	1	0.2420	85.6858	71.1075	94.7950
538	36	1	0.2420	86.0535	71.3183	93.2180
539	36	9	-0.6180	88.6621	65.4656	93.8899
540	36	1	0.2420	84.6873	70.5294	93.6394
541	37	6	-0.0940	24.2041	86.1048	18.4538
542	37	7	0.3010	25.5639	86.0841	18.1424
543	37	6	-0.0940	26.2263	87.2713	17.8310
544	37	5	-0.2120	25.5287	88.4798	17.8297
545	37	4	-0.0400	24.1691	88.5003	18.1405
546	37	5	-0.2120	23.5068	87.3128	18.4530
547	37	3	0.0430	23.6821	85.1688	18.6997
548	37	3	0.0430	27.2983	87.2551	17.5861
549	37	2	0.1240	26.0512	89.4157	17.5840
550	37	2	0.1240	22.4350	87.3293	18.6982
551	37	8	-0.0910	23.4338	89.7732	18.1392
552	37	1	0.2420	23.4773	90.1842	19.0498
553	37	1	0.2420	23.8450	90.3951	17.4728
554	37	9	-0.6180	26.4535	84.5424	18.1448
555	37	1	0.2420	22.4787	89.6062	17.8942
556	38	6	-0.0940	22.0131	86.1959	66.9951
557	38	7	0.3010	23.3730	86.1752	66.6837
558	38	6	-0.0940	24.0354	87.3624	66.3723
559	38	5	-0.2120	23.3377	88.5709	66.3710
560	38	4	-0.0400	21.9782	88.5915	66.6818
561	38	5	-0.2120	21.3159	87.4040	66.9943
562	38	3	0.0430	21.4911	85.2599	67.2411
563	38	3	0.0430	25.1074	87.3462	66.1275
564	38	2	0.1240	23.8603	89.5068	66.1253
565	38	2	0.1240	20.2441	87.4205	67.2395
566	38	8	-0.0910	21.2428	89.8643	66.6806
567	38	1	0.2420	21.2864	90.2754	67.5912
568	38	1	0.2420	21.6541	90.4862	66.0141
569	38	9	-0.6180	24.2626	84.6335	66.6861
570	38	1	0.2420	20.2878	89.6973	66.4356
571	39	6	-0.0940	54.9215	3.9048	41.7040
572	39	7	0.3010	56.2813	3.8841	41.3927
573	39	6	-0.0940	56.9438	5.0712	41.0812
574	39	5	-0.2120	56.2461	6.2797	41.0799
575	39	4	-0.0400	54.8865	6.3003	41.3908
576	39	5	-0.2120	54.2242	5.1128	41.7032
577	39	3	0.0430	54.3995	2.9688	41.9500
578	39	3	0.0430	58.0157	5.0551	40.8364
579	39	2	0.1240	56.7686	7.2156	40.8343
580	39	2	0.1240	53.1524	5.1293	41.9484
581	39	8	-0.0910	54.1512	7.5732	41.3895
582	39	1	0.2420	54.1947	7.9842	42.3001
583	39	1	0.2420	54.5625	8.1951	40.7230
584	39	9	-0.6180	57.1710	2.3423	41.3950
585	39	1	0.2420	53.1962	7.4062	41.1445
586	40	6	-0.0940	95.4434	45.9728	33.2059
587	40	7	0.3010	96.8032	45.9520	32.8945
588	40	6	-0.0940	97.4657	47.1392	32.5831
589	40	5	-0.2120	96.7680	48.3477	32.5818
590	40	4	-0.0400	95.4084	48.3683	32.8926
591	40	5	-0.2120	94.7462	47.1808	33.2051
592	40	3	0.0430	94.9214	45.0367	33.4518
593	40	3	0.0430	98.5377	47.1230	32.3382
594	40	2	0.1240	97.2906	49.2836	32.3361
595	40	2	0.1240	93.6744	47.1973	33.4503
596	40	8	-0.0910	94.6731	49.6412	32.8913
597	40	1	0.2420	94.7167	50.0522	33.8019
598	40	1	0.2420	95.0844	50.2630	32.2249
599	40	9	-0.6180	97.6929	44.4103	32.8969
600	40	1	0.2420	93.7181	49.4742	32.6463
601	41	6	-0.0940	53.3505	79.2753	78.1562
602	41	7	0.3010	54.7103	79.2546	77.8448
603	41	6	-0.0940	55.3728	80.4418	77.5334
604	41	5	-0.2120	54.6751	81.6503	77.5320
605	41	4	-0.0400	53.3155	81.6709	77.8429
606	41	5	-0.2120	52.6532	80.4834	78.1554
607	41	3	0.0430	52.8285	78.3393	78.4021
608	41	3	0.0430	56.4447	80.4256	77.2885
609	41	2	0.1240	55.1976	82.5862	77.2864
610	41	2	0.1240	51.5814	80.4999	78.4006
611	41	8	-0.0910	52.5802	82.9437	77.8416
612	41	1	0.2420	52.6237	83.3548	78.7522
613	41	1	0.2420	52.9915	83.5656	77.1752
614	41	9	-0.6180	55.6000	77.7129	77.8472
615	41	1	0.2420	51.6252	82.7767	77.5966
616	42	6	-0.0940	94.9365	33.6724	34.4811
617	42	7	0.3010	96.2963	33.6516	34.1697
618	42	6	-0.0940	96.9588	34.8388	33.8582
619	42	5	-0.2120	96.2611	36.0473	33.8569
620	42	4	-0.0400	94.9015	36.0679	34.1678
621	42	5	-0.2120	94.2392	34.8804	34.4803
622	42	3	0.0430	94.4145	32.7363	34.7270
623	42	3	0.0430	98.0308	34.8226	33.6134
624	42	2	0.1240	96.7837	36.9832	33.6113
625	42	2	0.1240	93.1675	34.8969	34.7255
626	42	8	-0.0910	94.1662	37.3408	34.1665
627	42	1	0.2420	94.2098	37.7518	35.0771
628	42	1	0.2420	94.5775	37.9626	33.5001
629	42	9	-0.6180	97.1860	32.1099	34.1721
630	42	1	0.2420	93.2112	37.1738	33.9215
631	43	6	-0.0940	8.7411	66.6728	90.4193
632	43	7	0.3010	10.1010	66.6520	90.1080
633	43	6	-0.0940	10.7634	67.8392	89.7965
634	43	5	-0.2120	10.0657	69.0477	89.7952
635	43	4	-0.0400	8.7062	69.0683	90.1061
636	43	5	-0.2120	8.0439	67.8808	90.4185
637	43	3	0.0430	8.2191	65.7367	90.6653
638	43	3	0.0430	11.8354	67.8230	89.5517
639	43	2	0.1240	10.5883	69.9836	89.5496
640	43	2	0.1240	6.9721	67.8973	90.6638
641	43	8	-0.0910	7.9708	70.3412	90.1048
642	43	1	0.2420	8.0144	70.7522	91.0154
643	43	1	0.2420	8.3821	70.9631	89.4383
644	43	9	-0.6180	10.9906	65.1103	90.1103
645	43	1	0.2420	7.0158	70.1742	89.8598
646	44	6	-0.0940	80.2698	12.9767	54.4006
647	44	7	0.3010	81.6296	12.9559	54.0893
648	44	6	-0.0940	82.2921	14.1431	53.7778
649	44	5	-0.2120	81.5944	15.3516	53.7765