# data file for 100 4ATP_NH3+_S- precursors and 150 Cu2+ atoms.
-4 69 xlo xhi
-4 69 ylo yhi
-4 69 zlo zhi

1650 atoms
1500 bonds
2400 angles
3000 dihedrals

10 atom types
5 bond types
6 angle types
8 dihedral types

Masses

	1	1.007940
	2	1.007940
	3	1.007940
	4	12.011000
	5	12.011000
	6	12.011000
	7	12.011000
	8	14.006740
	9	32.066000
	10	63.546000

Angle Coeffs

	1	2.82100000	119.99845663
	2	1.10200000	119.99722289
	3	0.71270000	109.47122085
	4	0.83470000	109.47122104
	5	1.87100000	120.01134316
	6	1.41100000	119.98077035

Bond Coeffs

	1	26.28860000	1.39516000
	2	20.38800000	1.09961030
	3	17.26870000	1.47000000
	4	15.18740000	1.78000000
	5	31.53220000	1.00000000

Dihedral Coeffs

	1	-0.60270000	180.00	1.80570000	0.00	0.61130000	180.00
	2	2.01256000	180.00	0.00000000	0.00	0.00000000	0.00
	3	1.18360000	0.00	0.19560000	0.00	0.00000000	0.00
	4	0.00000000	0.00	0.00949600	180.00	0.00000000	0.00
	5	3.46290000	180.00	-0.33120000	0.00	0.03201000	-180.00
	6	2.49320000	0.00	0.00000000	0.00	0.00000000	0.00
	7	2.91420000	180.00	-0.25860000	0.00	-0.00447900	0.00
	8	2.87850000	0.00	0.00000000	0.00	0.00000000	0.00

MiddleBondTorsion Coeffs

	1	0	0	0	0
	2	0	0	0	0
	3	0	0	0	0
	4	0	0	0	0
	5	0	0	0	0
	6	0	0	0	0
	7	0	0	0	0
	8	0	0	0	0

EndBondTorsion Coeffs

	1	0	0	0	0	0	0	0	0
	2	0	0	0	0	0	0	0	0
	3	0	0	0	0	0	0	0	0
	4	0	0	0	0	0	0	0	0
	5	0	0	0	0	0	0	0	0
	6	0	0	0	0	0	0	0	0
	7	0	0	0	0	0	0	0	0
	8	0	0	0	0	0	0	0	0

AngleTorsion Coeffs

	1	0	0	0	0	0	0	0	0
	2	0	0	0	0	0	0	0	0
	3	0	0	0	0	0	0	0	0
	4	0	0	0	0	0	0	0	0
	5	0	0	0	0	0	0	0	0
	6	0	0	0	0	0	0	0	0
	7	0	0	0	0	0	0	0	0
	8	0	0	0	0	0	0	0	0

AngleAngleTorsion Coeffs

	1	0	0	0
	2	0	0	0
	3	0	0	0
	4	0	0	0
	5	0	0	0
	6	0	0	0
	7	0	0	0
	8	0	0	0

BondBond13 Coeffs

	1	0	0	0
	2	0	0	0
	3	0	0	0
	4	0	0	0
	5	0	0	0
	6	0	0	0
	7	0	0	0
	8	0	0	0

Pair Coeffs

	1	0.03000000	1.35820000	10.00	10.00
	2	0.04600000	1.32000000	10.00	10.00
	3	0.04600000	1.32000000	10.00	10.00
	4	0.07000000	1.99240000	10.00	10.00
	5	0.07000000	1.99240000	10.00	10.00
	6	0.07000000	1.99240000	10.00	10.00
	7	0.07000000	1.99240000	10.00	10.00
	8	0.20000000	1.85000000	10.00	10.00
	9	0.45000000	2.00000000	10.00	10.00
	10	0.07340000	0.86850000	10.00	10.00

Atoms

1	1	6	-0.0940	45.5353	52.6409	3.4983
2	1	7	0.3010	46.8951	52.6202	3.1869
3	1	6	-0.0940	47.5576	53.8074	2.8755
4	1	5	-0.2120	46.8599	55.0159	2.8742
5	1	4	-0.0400	45.5004	55.0365	3.1850
6	1	5	-0.2120	44.8381	53.8490	3.4975
7	1	3	0.0430	45.0133	51.7049	3.7443
8	1	3	0.0430	48.6296	53.7912	2.6307
9	1	2	0.1240	47.3825	55.9518	2.6285
10	1	2	0.1240	43.7663	53.8655	3.7427
11	1	8	-0.0910	44.7650	56.3093	3.1838
12	1	1	0.2420	44.8086	56.7204	4.0943
13	1	1	0.2420	45.1763	56.9312	2.5173
14	1	9	-0.6180	47.7848	51.0785	3.1893
15	1	1	0.2420	43.8100	56.1423	2.9388
16	2	6	-0.0940	50.9860	34.8621	39.2968
17	2	7	0.3010	52.3458	34.8413	38.9854
18	2	6	-0.0940	53.0083	36.0285	38.6740
19	2	5	-0.2120	52.3106	37.2370	38.6727
20	2	4	-0.0400	50.9510	37.2576	38.9835
21	2	5	-0.2120	50.2887	36.0701	39.2960
22	2	3	0.0430	50.4640	33.9260	39.5428
23	2	3	0.0430	54.0802	36.0123	38.4292
24	2	2	0.1240	52.8332	38.1729	38.4271
25	2	2	0.1240	49.2170	36.0866	39.5412
26	2	8	-0.0910	50.2157	38.5305	38.9823
27	2	1	0.2420	50.2593	38.9415	39.8929
28	2	1	0.2420	50.6270	39.1523	38.3158
29	2	9	-0.6180	53.2355	33.2996	38.9878
30	2	1	0.2420	49.2607	38.3635	38.7373
31	3	6	-0.0940	46.4659	27.3860	35.2270
32	3	7	0.3010	47.8257	27.3653	34.9156
33	3	6	-0.0940	48.4882	28.5525	34.6042
34	3	5	-0.2120	47.7905	29.7610	34.6029
35	3	4	-0.0400	46.4309	29.7816	34.9137
36	3	5	-0.2120	45.7686	28.5941	35.2262
37	3	3	0.0430	45.9439	26.4500	35.4730
38	3	3	0.0430	49.5601	28.5363	34.3594
39	3	2	0.1240	48.3130	30.6969	34.3572
40	3	2	0.1240	44.6968	28.6106	35.4714
41	3	8	-0.0910	45.6956	31.0544	34.9125
42	3	1	0.2420	45.7391	31.4655	35.8230
43	3	1	0.2420	46.1068	31.6763	34.2460
44	3	9	-0.6180	48.7153	25.8236	34.9180
45	3	1	0.2420	44.7405	30.8874	34.6675
46	4	6	-0.0940	15.7358	17.3966	10.3234
47	4	7	0.3010	17.0957	17.3759	10.0120
48	4	6	-0.0940	17.7581	18.5631	9.7006
49	4	5	-0.2120	17.0604	19.7716	9.6993
50	4	4	-0.0400	15.7009	19.7922	10.0101
51	4	5	-0.2120	15.0386	18.6047	10.3226
52	4	3	0.0430	15.2138	16.4606	10.5693
53	4	3	0.0430	18.8301	18.5469	9.4558
54	4	2	0.1240	17.5830	20.7075	9.4536
55	4	2	0.1240	13.9668	18.6212	10.5678
56	4	8	-0.0910	14.9655	21.0650	10.0089
57	4	1	0.2420	15.0091	21.4761	10.9194
58	4	1	0.2420	15.3768	21.6869	9.3424
59	4	9	-0.6180	17.9853	15.8342	10.0144
60	4	1	0.2420	14.0105	20.8980	9.7638
61	5	6	-0.0940	11.2895	26.9570	44.4413
62	5	7	0.3010	12.6493	26.9362	44.1300
63	5	6	-0.0940	13.3117	28.1234	43.8185
64	5	5	-0.2120	12.6141	29.3319	43.8172
65	5	4	-0.0400	11.2545	29.3525	44.1281
66	5	5	-0.2120	10.5922	28.1650	44.4405
67	5	3	0.0430	10.7675	26.0209	44.6873
68	5	3	0.0430	14.3837	28.1072	43.5737
69	5	2	0.1240	13.1366	30.2678	43.5716
70	5	2	0.1240	9.5204	28.1815	44.6858
71	5	8	-0.0910	10.5192	30.6254	44.1268
72	5	1	0.2420	10.5627	31.0364	45.0374
73	5	1	0.2420	10.9304	31.2472	43.4604
74	5	9	-0.6180	13.5389	25.3945	44.1323
75	5	1	0.2420	9.5641	30.4584	43.8818
76	6	6	-0.0940	11.3288	36.6003	34.5305
77	6	7	0.3010	12.6886	36.5796	34.2192
78	6	6	-0.0940	13.3511	37.7668	33.9077
79	6	5	-0.2120	12.6534	38.9753	33.9064
80	6	4	-0.0400	11.2938	38.9959	34.2173
81	6	5	-0.2120	10.6315	37.8084	34.5297
82	6	3	0.0430	10.8068	35.6643	34.7765
83	6	3	0.0430	14.4230	37.7506	33.6629
84	6	2	0.1240	13.1759	39.9112	33.6608
85	6	2	0.1240	9.5598	37.8249	34.7750
86	6	8	-0.0910	10.5585	40.2687	34.2160
87	6	1	0.2420	10.6021	40.6798	35.1266
88	6	1	0.2420	10.9698	40.8906	33.5496
89	6	9	-0.6180	13.5783	35.0379	34.2215
90	6	1	0.2420	9.6035	40.1017	33.9710
91	7	6	-0.0940	30.9092	25.6714	28.0881
92	7	7	0.3010	32.2690	25.6507	27.7767
93	7	6	-0.0940	32.9315	26.8379	27.4653
94	7	5	-0.2120	32.2338	28.0464	27.4640
95	7	4	-0.0400	30.8742	28.0670	27.7748
96	7	5	-0.2120	30.2119	26.8795	28.0873
97	7	3	0.0430	30.3872	24.7354	28.3341
98	7	3	0.0430	34.0034	26.8217	27.2205
99	7	2	0.1240	32.7563	28.9823	27.2183
100	7	2	0.1240	29.1401	26.8960	28.3325
101	7	8	-0.0910	30.1389	29.3398	27.7736
102	7	1	0.2420	30.1825	29.7509	28.6841
103	7	1	0.2420	30.5502	29.9617	27.1071
104	7	9	-0.6180	33.1587	24.1090	27.7791
105	7	1	0.2420	29.1839	29.1728	27.5286
106	8	6	-0.0940	53.9385	19.9123	31.4161
107	8	7	0.3010	55.2983	19.8915	31.1047
108	8	6	-0.0940	55.9607	21.0787	30.7932
109	8	5	-0.2120	55.2631	22.2872	30.7919
110	8	4	-0.0400	53.9035	22.3078	31.1028
111	8	5	-0.2120	53.2412	21.1203	31.4153
112	8	3	0.0430	53.4165	18.9762	31.6620
113	8	3	0.0430	57.0327	21.0625	30.5484
114	8	2	0.1240	55.7856	23.2231	30.5463
115	8	2	0.1240	52.1694	21.1368	31.6605
116	8	8	-0.0910	53.1682	23.5807	31.1015
117	8	1	0.2420	53.2117	23.9917	32.0121
118	8	1	0.2420	53.5794	24.2026	30.4351
119	8	9	-0.6180	56.1879	18.3498	31.1071
120	8	1	0.2420	52.2131	23.4137	30.8565
121	9	6	-0.0940	59.4590	46.3848	38.5396
122	9	7	0.3010	60.8188	46.3640	38.2283
123	9	6	-0.0940	61.4813	47.5512	37.9168
124	9	5	-0.2120	60.7836	48.7597	37.9155
125	9	4	-0.0400	59.4240	48.7803	38.2264
126	9	5	-0.2120	58.7618	47.5928	38.5388
127	9	3	0.0430	58.9370	45.4487	38.7856
128	9	3	0.0430	62.5533	47.5350	37.6720
129	9	2	0.1240	61.3062	49.6956	37.6699
130	9	2	0.1240	57.6900	47.6093	38.7841
131	9	8	-0.0910	58.6887	50.0532	38.2251
132	9	1	0.2420	58.7323	50.4642	39.1357
133	9	1	0.2420	59.1000	50.6750	37.5587
134	9	9	-0.6180	61.7085	44.8223	38.2307
135	9	1	0.2420	57.7337	49.8862	37.9801
136	10	6	-0.0940	38.0907	43.0307	54.7378
137	10	7	0.3010	39.4505	43.0100	54.4264
138	10	6	-0.0940	40.1130	44.1972	54.1150
139	10	5	-0.2120	39.4153	45.4057	54.1136
140	10	4	-0.0400	38.0557	45.4263	54.4245
141	10	5	-0.2120	37.3934	44.2388	54.7370
142	10	3	0.0430	37.5687	42.0947	54.9837
143	10	3	0.0430	41.1849	44.1810	53.8701
144	10	2	0.1240	39.9378	46.3416	53.8680
145	10	2	0.1240	36.3216	44.2553	54.9822
146	10	8	-0.0910	37.3204	46.6991	54.4232
147	10	1	0.2420	37.3639	47.1102	55.3338
148	10	1	0.2420	37.7316	47.3210	53.7568
149	10	9	-0.6180	40.3401	41.4683	54.4288
150	10	1	0.2420	36.3653	46.5321	54.1782
151	11	6	-0.0940	21.0873	22.8865	54.9996
152	11	7	0.3010	22.4471	22.8658	54.6883
153	11	6	-0.0940	23.1095	24.0529	54.3768
154	11	5	-0.2120	22.4119	25.2615	54.3755
155	11	4	-0.0400	21.0523	25.2820	54.6864
156	11	5	-0.2120	20.3900	24.0945	54.9988
157	11	3	0.0430	20.5653	21.9505	55.2456
158	11	3	0.0430	24.1815	24.0368	54.1320
159	11	2	0.1240	22.9344	26.1974	54.1299
160	11	2	0.1240	19.3182	24.1110	55.2441
161	11	8	-0.0910	20.3170	26.5549	54.6851
162	11	1	0.2420	20.3605	26.9659	55.5957
163	11	1	0.2420	20.7282	27.1768	54.0187
164	11	9	-0.6180	23.3367	21.3240	54.6906
165	11	1	0.2420	19.3619	26.3879	54.4401
166	12	6	-0.0940	18.5931	58.1952	8.2156
167	12	7	0.3010	19.9530	58.1744	7.9042
168	12	6	-0.0940	20.6154	59.3616	7.5927
169	12	5	-0.2120	19.9177	60.5701	7.5914
170	12	4	-0.0400	18.5582	60.5907	7.9023
171	12	5	-0.2120	17.8959	59.4032	8.2147
172	12	3	0.0430	18.0711	57.2591	8.4615
173	12	3	0.0430	21.6874	59.3454	7.3479
174	12	2	0.1240	20.4403	61.5060	7.3458
175	12	2	0.1240	16.8241	59.4197	8.4600
176	12	8	-0.0910	17.8228	61.8636	7.9010
177	12	1	0.2420	17.8664	62.2746	8.8116
178	12	1	0.2420	18.2341	62.4854	7.2346
179	12	9	-0.6180	20.8426	56.6327	7.9066
180	12	1	0.2420	16.8678	61.6966	7.6560
181	13	6	-0.0940	3.4506	45.5007	38.0346
182	13	7	0.3010	4.8104	45.4799	37.7232
183	13	6	-0.0940	5.4728	46.6671	37.4118
184	13	5	-0.2120	4.7752	47.8756	37.4104
185	13	4	-0.0400	3.4156	47.8962	37.7213
186	13	5	-0.2120	2.7533	46.7087	38.0338
187	13	3	0.0430	2.9286	44.5646	38.2805
188	13	3	0.0430	6.5448	46.6509	37.1669
189	13	2	0.1240	5.2977	48.8115	37.1648
190	13	2	0.1240	1.6815	46.7252	38.2790
191	13	8	-0.0910	2.6803	49.1691	37.7200
192	13	1	0.2420	2.7238	49.5801	38.6306
193	13	1	0.2420	3.0915	49.7909	37.0536
194	13	9	-0.6180	5.7000	43.9382	37.7256
195	13	1	0.2420	1.7252	49.0021	37.4750
196	14	6	-0.0940	13.6542	31.7188	45.4661
197	14	7	0.3010	15.0140	31.6980	45.1547
198	14	6	-0.0940	15.6765	32.8852	44.8433
199	14	5	-0.2120	14.9788	34.0937	44.8420
200	14	4	-0.0400	13.6193	34.1143	45.1528
201	14	5	-0.2120	12.9570	32.9268	45.4653
202	14	3	0.0430	13.1322	30.7827	45.7121
203	14	3	0.0430	16.7485	32.8690	44.5985
204	14	2	0.1240	15.5014	35.0296	44.5963
205	14	2	0.1240	11.8852	32.9433	45.7105
206	14	8	-0.0910	12.8839	35.3872	45.1516
207	14	1	0.2420	12.9275	35.7982	46.0621
208	14	1	0.2420	13.2952	36.0090	44.4851
209	14	9	-0.6180	15.9037	30.1563	45.1571
210	14	1	0.2420	11.9289	35.2202	44.9066
211	15	6	-0.0940	18.5671	56.6642	8.6950
212	15	7	0.3010	19.9269	56.6434	8.3836
213	15	6	-0.0940	20.5893	57.8306	8.0722
214	15	5	-0.2120	19.8917	59.0391	8.0709
215	15	4	-0.0400	18.5321	59.0597	8.3817
216	15	5	-0.2120	17.8698	57.8722	8.6942
217	15	3	0.0430	18.0451	55.7281	8.9410
218	15	3	0.0430	21.6613	57.8144	7.8274
219	15	2	0.1240	20.4142	59.9750	7.8253
220	15	2	0.1240	16.7980	57.8887	8.9394
221	15	8	-0.0910	17.7967	60.3326	8.3805
222	15	1	0.2420	17.8403	60.7436	9.2911
223	15	1	0.2420	18.2080	60.9544	7.7140
224	15	9	-0.6180	20.8165	55.1017	8.3860
225	15	1	0.2420	16.8417	60.1656	8.1355
226	16	6	-0.0940	8.3113	37.8894	59.5427
227	16	7	0.3010	9.6711	37.8687	59.2313
228	16	6	-0.0940	10.3335	39.0559	58.9199
229	16	5	-0.2120	9.6359	40.2644	58.9186
230	16	4	-0.0400	8.2763	40.2850	59.2294
231	16	5	-0.2120	7.6140	39.0975	59.5419
232	16	3	0.0430	7.7893	36.9534	59.7887
233	16	3	0.0430	11.4055	39.0397	58.6751
234	16	2	0.1240	10.1584	41.2003	58.6730
235	16	2	0.1240	6.5422	39.1140	59.7871
236	16	8	-0.0910	7.5410	41.5579	59.2282
237	16	1	0.2420	7.5845	41.9689	60.1388
238	16	1	0.2420	7.9522	42.1797	58.5617
239	16	9	-0.6180	10.5607	36.3270	59.2337
240	16	1	0.2420	6.5859	41.3909	58.9832
241	17	6	-0.0940	52.4065	5.1656	35.6836
242	17	7	0.3010	53.7663	5.1448	35.3722
243	17	6	-0.0940	54.4288	6.3320	35.0608
244	17	5	-0.2120	53.7311	7.5405	35.0594
245	17	4	-0.0400	52.3715	7.5611	35.3703
246	17	5	-0.2120	51.7093	6.3736	35.6828
247	17	3	0.0430	51.8845	4.2295	35.9295
248	17	3	0.0430	55.5008	6.3158	34.8159
249	17	2	0.1240	54.2537	8.4764	34.8138
250	17	2	0.1240	50.6375	6.3901	35.9280
251	17	8	-0.0910	51.6362	8.8340	35.3690
252	17	1	0.2420	51.6798	9.2450	36.2796
253	17	1	0.2420	52.0475	9.4558	34.7026
254	17	9	-0.6180	54.6560	3.6031	35.3746
255	17	1	0.2420	50.6812	8.6670	35.1240
256	18	6	-0.0940	5.6085	41.5338	6.1381
257	18	7	0.3010	6.9683	41.5130	5.8267
258	18	6	-0.0940	7.6307	42.7002	5.5153
259	18	5	-0.2120	6.9331	43.9087	5.5139
260	18	4	-0.0400	5.5735	43.9293	5.8248
261	18	5	-0.2120	4.9112	42.7418	6.1373
262	18	3	0.0430	5.0865	40.5977	6.3840
263	18	3	0.0430	8.7027	42.6840	5.2704
264	18	2	0.1240	7.4556	44.8446	5.2683
265	18	2	0.1240	3.8394	42.7583	6.3825
266	18	8	-0.0910	4.8381	45.2022	5.8235
267	18	1	0.2420	4.8817	45.6132	6.7341
268	18	1	0.2420	5.2494	45.8240	5.1571
269	18	9	-0.6180	7.8579	39.9713	5.8291
270	18	1	0.2420	3.8831	45.0352	5.5785
271	19	6	-0.0940	39.2600	7.1018	43.6845
272	19	7	0.3010	40.6198	7.0811	43.3731
273	19	6	-0.0940	41.2822	8.2683	43.0617
274	19	5	-0.2120	40.5846	9.4768	43.0603
275	19	4	-0.0400	39.2250	9.4974	43.3712
276	19	5	-0.2120	38.5627	8.3099	43.6837
277	19	3	0.0430	38.7380	6.1658	43.9304
278	19	3	0.0430	42.3542	8.2521	42.8168
279	19	2	0.1240	41.1071	10.4127	42.8147
280	19	2	0.1240	37.4909	8.3264	43.9289
281	19	8	-0.0910	38.4897	10.7702	43.3699
282	19	1	0.2420	38.5332	11.1813	44.2805
283	19	1	0.2420	38.9009	11.3921	42.7035
284	19	9	-0.6180	41.5094	5.5394	43.3755
285	19	1	0.2420	37.5346	10.6032	43.1249
286	20	6	-0.0940	49.6773	5.1239	38.3356
287	20	7	0.3010	51.0371	5.1032	38.0242
288	20	6	-0.0940	51.6996	6.2904	37.7128
289	20	5	-0.2120	51.0019	7.4989	37.7115
290	20	4	-0.0400	49.6423	7.5194	38.0223
291	20	5	-0.2120	48.9801	6.3320	38.3348
292	20	3	0.0430	49.1553	4.1879	38.5816
293	20	3	0.0430	52.7716	6.2742	37.4680
294	20	2	0.1240	51.5245	8.4348	37.4659
295	20	2	0.1240	47.9083	6.3485	38.5800
296	20	8	-0.0910	48.9070	8.7923	38.0211
297	20	1	0.2420	48.9506	9.2033	38.9317
298	20	1	0.2420	49.3183	9.4142	37.3546
299	20	9	-0.6180	51.9268	3.5615	38.0266
300	20	1	0.2420	47.9520	8.6253	37.7761
301	21	6	-0.0940	26.2230	41.1408	59.5964
302	21	7	0.3010	27.5828	41.1200	59.2850
303	21	6	-0.0940	28.2452	42.3072	58.9736
304	21	5	-0.2120	27.5476	43.5157	58.9723
305	21	4	-0.0400	26.1880	43.5363	59.2831
306	21	5	-0.2120	25.5257	42.3488	59.5956
307	21	3	0.0430	25.7010	40.2047	59.8424
308	21	3	0.0430	29.3172	42.2910	58.7288
309	21	2	0.1240	28.0701	44.4516	58.7266
310	21	2	0.1240	24.4539	42.3653	59.8408
311	21	8	-0.0910	25.4526	44.8092	59.2819
312	21	1	0.2420	25.4962	45.2202	60.1924
313	21	1	0.2420	25.8639	45.4310	58.6154
314	21	9	-0.6180	28.4724	39.5783	59.2874
315	21	1	0.2420	24.4976	44.6422	59.0369
316	22	6	-0.0940	22.9703	8.9247	13.7163
317	22	7	0.3010	24.3301	8.9040	13.4050
318	22	6	-0.0940	24.9926	10.0912	13.0935
319	22	5	-0.2120	24.2949	11.2997	13.0922
320	22	4	-0.0400	22.9353	11.3202	13.4031
321	22	5	-0.2120	22.2730	10.1328	13.7155
322	22	3	0.0430	22.4483	7.9887	13.9623
323	22	3	0.0430	26.0645	10.0750	12.8487
324	22	2	0.1240	24.8174	12.2356	12.8466
325	22	2	0.1240	21.2012	10.1493	13.9608
326	22	8	-0.0910	22.2000	12.5931	13.4018
327	22	1	0.2420	22.2435	13.0041	14.3124
328	22	1	0.2420	22.6112	13.2150	12.7354
329	22	9	-0.6180	25.2197	7.3623	13.4073
330	22	1	0.2420	21.2449	12.4261	13.1568
331	23	6	-0.0940	5.2131	55.6664	37.9548
332	23	7	0.3010	6.5729	55.6457	37.6435
333	23	6	-0.0940	7.2354	56.8329	37.3320
334	23	5	-0.2120	6.5377	58.0414	37.3307
335	23	4	-0.0400	5.1781	58.0619	37.6416
336	23	5	-0.2120	4.5159	56.8745	37.9540
337	23	3	0.0430	4.6911	54.7304	38.2008
338	23	3	0.0430	8.3074	56.8167	37.0872
339	23	2	0.1240	7.0603	58.9773	37.0851
340	23	2	0.1240	3.4441	56.8910	38.1992
341	23	8	-0.0910	4.4428	59.3348	37.6403
342	23	1	0.2420	4.4864	59.7458	38.5509
343	23	1	0.2420	4.8541	59.9567	36.9738
344	23	9	-0.6180	7.4626	54.1040	37.6458
345	23	1	0.2420	3.4878	59.1678	37.3953
346	24	6	-0.0940	13.4866	57.5216	52.0725
347	24	7	0.3010	14.8464	57.5008	51.7611
348	24	6	-0.0940	15.5088	58.6880	51.4497
349	24	5	-0.2120	14.8112	59.8965	51.4484
350	24	4	-0.0400	13.4516	59.9171	51.7592
351	24	5	-0.2120	12.7893	58.7296	52.0717
352	24	3	0.0430	12.9646	56.5855	52.3184
353	24	3	0.0430	16.5808	58.6718	51.2048
354	24	2	0.1240	15.3337	60.8324	51.2027
355	24	2	0.1240	11.7175	58.7461	52.3169
356	24	8	-0.0910	12.7163	61.1900	51.7579
357	24	1	0.2420	12.7598	61.6010	52.6685
358	24	1	0.2420	13.1275	61.8118	51.0915
359	24	9	-0.6180	15.7360	55.9591	51.7635
360	24	1	0.2420	11.7612	61.0230	51.5129
361	25	6	-0.0940	24.5548	51.4296	58.1506
362	25	7	0.3010	25.9146	51.4088	57.8393
363	25	6	-0.0940	26.5771	52.5960	57.5278
364	25	5	-0.2120	25.8794	53.8045	57.5265
365	25	4	-0.0400	24.5198	53.8251	57.8374
366	25	5	-0.2120	23.8576	52.6376	58.1498
367	25	3	0.0430	24.0328	50.4935	58.3966
368	25	3	0.0430	27.6491	52.5798	57.2830
369	25	2	0.1240	26.4020	54.7404	57.2809
370	25	2	0.1240	22.7858	52.6541	58.3951
371	25	8	-0.0910	23.7845	55.0980	57.8361
372	25	1	0.2420	23.8281	55.5090	58.7467
373	25	1	0.2420	24.1958	55.7198	57.1697
374	25	9	-0.6180	26.8043	49.8671	57.8417
375	25	1	0.2420	22.8295	54.9310	57.5911
376	26	6	-0.0940	41.0357	44.2420	4.6779
377	26	7	0.3010	42.3955	44.2213	4.3665
378	26	6	-0.0940	43.0579	45.4085	4.0551
379	26	5	-0.2120	42.3603	46.6170	4.0538
380	26	4	-0.0400	41.0007	46.6375	4.3646
381	26	5	-0.2120	40.3384	45.4501	4.6771
382	26	3	0.0430	40.5137	43.3060	4.9239
383	26	3	0.0430	44.1299	45.3923	3.8103
384	26	2	0.1240	42.8828	47.5529	3.8081
385	26	2	0.1240	39.2666	45.4666	4.9223
386	26	8	-0.0910	40.2653	47.9104	4.3634
387	26	1	0.2420	40.3089	48.3214	5.2739
388	26	1	0.2420	40.6766	48.5323	3.6969
389	26	9	-0.6180	43.2851	42.6796	4.3689
390	26	1	0.2420	39.3103	47.7434	4.1184
391	27	6	-0.0940	30.1319	59.3205	54.2708
392	27	7	0.3010	31.4917	59.2998	53.9594
393	27	6	-0.0940	32.1542	60.4869	53.6480
394	27	5	-0.2120	31.4565	61.6954	53.6467
395	27	4	-0.0400	30.0969	61.7160	53.9575
396	27	5	-0.2120	29.4346	60.5285	54.2700
397	27	3	0.0430	29.6099	58.3844	54.5168
398	27	3	0.0430	33.2261	60.4707	53.4032
399	27	2	0.1240	31.9790	62.6313	53.4010
400	27	2	0.1240	28.3628	60.5450	54.5152
401	27	8	-0.0910	29.3616	62.9889	53.9563
402	27	1	0.2420	29.4051	63.3999	54.8668
403	27	1	0.2420	29.7729	63.6108	53.2898
404	27	9	-0.6180	32.3814	57.7580	53.9618
405	27	1	0.2420	28.4066	62.8219	53.7113
406	28	6	-0.0940	15.8502	51.7019	19.1517
407	28	7	0.3010	17.2100	51.6812	18.8404
408	28	6	-0.0940	17.8725	52.8683	18.5289
409	28	5	-0.2120	17.1748	54.0768	18.5276
410	28	4	-0.0400	15.8152	54.0974	18.8385
411	28	5	-0.2120	15.1529	52.9099	19.1509
412	28	3	0.0430	15.3282	50.7658	19.3977
413	28	3	0.0430	18.9444	52.8521	18.2841
414	28	2	0.1240	17.6973	55.0127	18.2820
415	28	2	0.1240	14.0811	52.9264	19.3961
416	28	8	-0.0910	15.0799	55.3703	18.8372
417	28	1	0.2420	15.1235	55.7813	19.7478
418	28	1	0.2420	15.4912	55.9922	18.1707
419	28	9	-0.6180	18.0997	50.1394	18.8427
420	28	1	0.2420	14.1249	55.2033	18.5922
421	29	6	-0.0940	54.7983	51.5467	29.5603
422	29	7	0.3010	56.1581	51.5260	29.2490
423	29	6	-0.0940	56.8205	52.7131	28.9375
424	29	5	-0.2120	56.1229	53.9216	28.9362
425	29	4	-0.0400	54.7633	53.9422	29.2471
426	29	5	-0.2120	54.1010	52.7547	29.5595
427	29	3	0.0430	54.2763	50.6107	29.8063
428	29	3	0.0430	57.8925	52.6970	28.6927
429	29	2	0.1240	56.6454	54.8575	28.6906
430	29	2	0.1240	53.0292	52.7712	29.8048
431	29	8	-0.0910	54.0280	55.2151	29.2458
432	29	1	0.2420	54.0715	55.6261	30.1564
433	29	1	0.2420	54.4392	55.8370	28.5794
434	29	9	-0.6180	57.0477	49.9842	29.2513
435	29	1	0.2420	53.0729	55.0481	29.0008
436	30	6	-0.0940	44.7101	57.5981	28.5436
437	30	7	0.3010	46.0699	57.5774	28.2323
438	30	6	-0.0940	46.7324	58.7645	27.9208
439	30	5	-0.2120	46.0347	59.9730	27.9195
440	30	4	-0.0400	44.6751	59.9936	28.2304
441	30	5	-0.2120	44.0129	58.8061	28.5428
442	30	3	0.0430	44.1881	56.6621	28.7896
443	30	3	0.0430	47.8044	58.7484	27.6760
444	30	2	0.1240	46.5573	60.9089	27.6739
445	30	2	0.1240	42.9411	58.8226	28.7881
446	30	8	-0.0910	43.9398	61.2665	28.2291
447	30	1	0.2420	43.9834	61.6775	29.1397
448	30	1	0.2420	44.3511	61.8884	27.5627
449	30	9	-0.6180	46.9596	56.0356	28.2346
450	30	1	0.2420	42.9848	61.0995	27.9841
451	31	6	-0.0940	38.3481	16.5126	36.7483
452	31	7	0.3010	39.7079	16.4919	36.4370
453	31	6	-0.0940	40.3704	17.6791	36.1255
454	31	5	-0.2120	39.6727	18.8876	36.1242
455	31	4	-0.0400	38.3131	18.9082	36.4351
456	31	5	-0.2120	37.6509	17.7207	36.7475
457	31	3	0.0430	37.8261	15.5766	36.9943
458	31	3	0.0430	41.4424	17.6629	35.8807
459	31	2	0.1240	40.1953	19.8235	35.8786
460	31	2	0.1240	36.5791	17.7372	36.9928
461	31	8	-0.0910	37.5778	20.1810	36.4338
462	31	1	0.2420	37.6214	20.5920	37.3444
463	31	1	0.2420	37.9891	20.8029	35.7674
464	31	9	-0.6180	40.5976	14.9502	36.4394
465	31	1	0.2420	36.6228	20.0140	36.1888
466	32	6	-0.0940	60.4937	58.6963	57.2709
467	32	7	0.3010	61.8536	58.6756	56.9595
468	32	6	-0.0940	62.5160	59.8628	56.6481
469	32	5	-0.2120	61.8183	61.0713	56.6467
470	32	4	-0.0400	60.4588	61.0919	56.9576
471	32	5	-0.2120	59.7965	59.9044	57.2701
472	32	3	0.0430	59.9717	57.7603	57.5168
473	32	3	0.0430	63.5880	59.8466	56.4032
474	32	2	0.1240	62.3409	62.0072	56.4011
475	32	2	0.1240	58.7247	59.9209	57.5153
476	32	8	-0.0910	59.7234	62.3647	56.9563
477	32	1	0.2420	59.7670	62.7758	57.8669
478	32	1	0.2420	60.1347	62.9866	56.2899
479	32	9	-0.6180	62.7432	57.1339	56.9619
480	32	1	0.2420	58.7684	62.1978	56.7113
481	33	6	-0.0940	45.6987	16.9829	10.8389
482	33	7	0.3010	47.0586	16.9621	10.5275
483	33	6	-0.0940	47.7210	18.1493	10.2161
484	33	5	-0.2120	47.0233	19.3578	10.2148
485	33	4	-0.0400	45.6638	19.3784	10.5256
486	33	5	-0.2120	45.0015	18.1909	10.8381
487	33	3	0.0430	45.1767	16.0468	11.0849
488	33	3	0.0430	48.7930	18.1331	9.9713
489	33	2	0.1240	47.5459	20.2937	9.9692
490	33	2	0.1240	43.9297	18.2074	11.0833
491	33	8	-0.0910	44.9284	20.6513	10.5244
492	33	1	0.2420	44.9720	21.0623	11.4350
493	33	1	0.2420	45.3397	21.2731	9.8579
494	33	9	-0.6180	47.9482	15.4204	10.5299
495	33	1	0.2420	43.9734	20.4843	10.2794
496	34	6	-0.0940	50.3699	29.1661	40.5387
497	34	7	0.3010	51.7297	29.1454	40.2273
498	34	6	-0.0940	52.3921	30.3325	39.9159
499	34	5	-0.2120	51.6945	31.5410	39.9145
500	34	4	-0.0400	50.3349	31.5616	40.2254
501	34	5	-0.2120	49.6726	30.3741	40.5379
502	34	3	0.0430	49.8479	28.2300	40.7846
503	34	3	0.0430	53.4641	30.3163	39.6710
504	34	2	0.1240	52.2170	32.4769	39.6689
505	34	2	0.1240	48.6008	30.3906	40.7831
506	34	8	-0.0910	49.5996	32.8345	40.2241
507	34	1	0.2420	49.6431	33.2455	41.1347
508	34	1	0.2420	50.0108	33.4564	39.5577
509	34	9	-0.6180	52.6193	27.6036	40.2297
510	34	1	0.2420	48.6445	32.6675	39.9791
511	35	6	-0.0940	27.9735	26.3402	44.8223
512	35	7	0.3010	29.3333	26.3194	44.5110
513	35	6	-0.0940	29.9958	27.5066	44.1995
514	35	5	-0.2120	29.2981	28.7151	44.1982
515	35	4	-0.0400	27.9385	28.7357	44.5091
516	35	5	-0.2120	27.2762	27.5482	44.8215
517	35	3	0.0430	27.4515	25.4041	45.0683
518	35	3	0.0430	31.0677	27.4904	43.9547
519	35	2	0.1240	29.8206	29.6510	43.9526
520	35	2	0.1240	26.2044	27.5647	45.0668
521	35	8	-0.0910	27.2032	30.0086	44.5078
522	35	1	0.2420	27.2467	30.4196	45.4184
523	35	1	0.2420	27.6145	30.6304	43.8413
524	35	9	-0.6180	30.2230	24.7777	44.5133
525	35	1	0.2420	26.2482	29.8416	44.2628
526	36	6	-0.0940	17.9897	8.5724	7.4802
527	36	7	0.3010	19.3495	8.5516	7.1688
528	36	6	-0.0940	20.0119	9.7388	6.8574
529	36	5	-0.2120	19.3143	10.9473	6.8560
530	36	4	-0.0400	17.9547	10.9679	7.1669
531	36	5	-0.2120	17.2924	9.7804	7.4794
532	36	3	0.0430	17.4677	7.6363	7.7261
533	36	3	0.0430	21.0839	9.7226	6.6125
534	36	2	0.1240	19.8368	11.8832	6.6104
535	36	2	0.1240	16.2206	9.7969	7.7246
536	36	8	-0.0910	17.2194	12.2408	7.1656
537	36	1	0.2420	17.2629	12.6518	8.0762
538	36	1	0.2420	17.6306	12.8627	6.4992
539	36	9	-0.6180	20.2391	7.0099	7.1712
540	36	1	0.2420	16.2643	12.0738	6.9206
541	37	6	-0.0940	30.9638	39.4840	50.2739
542	37	7	0.3010	32.3236	39.4633	49.9625
543	37	6	-0.0940	32.9861	40.6504	49.6511
544	37	5	-0.2120	32.2884	41.8589	49.6498
545	37	4	-0.0400	30.9288	41.8795	49.9606
546	37	5	-0.2120	30.2665	40.6920	50.2731
547	37	3	0.0430	30.4418	38.5479	50.5199
548	37	3	0.0430	34.0580	40.6342	49.4063
549	37	2	0.1240	32.8109	42.7948	49.4041
550	37	2	0.1240	29.1948	40.7085	50.5183
551	37	8	-0.0910	30.1935	43.1524	49.9594
552	37	1	0.2420	30.2371	43.5634	50.8699
553	37	1	0.2420	30.6048	43.7743	49.2929
554	37	9	-0.6180	33.2133	37.9215	49.9649
555	37	1	0.2420	29.2385	42.9854	49.7144
556	38	6	-0.0940	56.1628	52.9676	16.1360
557	38	7	0.3010	57.5226	52.9469	15.8246
558	38	6	-0.0940	58.1850	54.1341	15.5132
559	38	5	-0.2120	57.4874	55.3426	15.5119
560	38	4	-0.0400	56.1278	55.3631	15.8227
561	38	5	-0.2120	55.4655	54.1757	16.1352
562	38	3	0.0430	55.6407	52.0316	16.3820
563	38	3	0.0430	59.2570	54.1179	15.2684
564	38	2	0.1240	58.0099	56.2785	15.2662
565	38	2	0.1240	54.3937	54.1922	16.3804
566	38	8	-0.0910	55.3924	56.6360	15.8215
567	38	1	0.2420	55.4360	57.0470	16.7320
568	38	1	0.2420	55.8037	57.2579	15.1550
569	38	9	-0.6180	58.4122	51.4052	15.8270
570	38	1	0.2420	54.4374	56.4690	15.5765
571	39	6	-0.0940	26.0118	29.5143	31.0681
572	39	7	0.3010	27.3716	29.4936	30.7567
573	39	6	-0.0940	28.0341	30.6807	30.4453
574	39	5	-0.2120	27.3364	31.8892	30.4440
575	39	4	-0.0400	25.9768	31.9098	30.7548
576	39	5	-0.2120	25.3145	30.7223	31.0673
577	39	3	0.0430	25.4898	28.5783	31.3140
578	39	3	0.0430	29.1060	30.6646	30.2005
579	39	2	0.1240	27.8589	32.8251	30.1983
580	39	2	0.1240	24.2427	30.7388	31.3125
581	39	8	-0.0910	25.2415	33.1827	30.7536
582	39	1	0.2420	25.2850	33.5937	31.6641
583	39	1	0.2420	25.6527	33.8046	30.0871
584	39	9	-0.6180	28.2612	27.9518	30.7591
585	39	1	0.2420	24.2864	33.0157	30.5085
586	40	6	-0.0940	17.6879	19.2645	43.2507
587	40	7	0.3010	19.0477	19.2438	42.9393
588	40	6	-0.0940	19.7102	20.4310	42.6279
589	40	5	-0.2120	19.0125	21.6395	42.6266
590	40	4	-0.0400	17.6529	21.6601	42.9374
591	40	5	-0.2120	16.9907	20.4726	43.2499
592	40	3	0.0430	17.1659	18.3285	43.4966
593	40	3	0.0430	20.7822	20.4148	42.3830
594	40	2	0.1240	19.5351	22.5754	42.3809
595	40	2	0.1240	15.9189	20.4891	43.4951
596	40	8	-0.0910	16.9176	22.9329	42.9361
597	40	1	0.2420	16.9612	23.3440	43.8467
598	40	1	0.2420	17.3289	23.5548	42.2697
599	40	9	-0.6180	19.9374	17.7021	42.9417
600	40	1	0.2420	15.9626	22.7659	42.6911
601	41	6	-0.0940	40.3242	30.8481	21.4703
602	41	7	0.3010	41.6840	30.8274	21.1589
603	41	6	-0.0940	42.3465	32.0146	20.8475
604	41	5	-0.2120	41.6488	33.2231	20.8461
605	41	4	-0.0400	40.2892	33.2437	21.1570
606	41	5	-0.2120	39.6269	32.0562	21.4695
607	41	3	0.0430	39.8022	29.9121	21.7162
608	41	3	0.0430	43.4184	31.9984	20.6026
609	41	2	0.1240	42.1713	34.1590	20.6005
610	41	2	0.1240	38.5551	32.0727	21.7147
611	41	8	-0.0910	39.5539	34.5165	21.1557
612	41	1	0.2420	39.5974	34.9276	22.0663
613	41	1	0.2420	39.9651	35.1384	20.4893
614	41	9	-0.6180	42.5736	29.2857	21.1613
615	41	1	0.2420	38.5989	34.3495	20.9107
616	42	6	-0.0940	33.3832	39.6922	26.1154
617	42	7	0.3010	34.7430	39.6715	25.8041
618	42	6	-0.0940	35.4055	40.8587	25.4926
619	42	5	-0.2120	34.7078	42.0672	25.4913
620	42	4	-0.0400	33.3482	42.0878	25.8022
621	42	5	-0.2120	32.6860	40.9003	26.1146
622	42	3	0.0430	32.8612	38.7562	26.3614
623	42	3	0.0430	36.4775	40.8425	25.2478
624	42	2	0.1240	35.2304	43.0031	25.2457
625	42	2	0.1240	31.6142	40.9168	26.3599
626	42	8	-0.0910	32.6129	43.3606	25.8009
627	42	1	0.2420	32.6565	43.7717	26.7115
628	42	1	0.2420	33.0242	43.9825	25.1345
629	42	9	-0.6180	35.6327	38.1298	25.8064
630	42	1	0.2420	31.6579	43.1936	25.5559
631	43	6	-0.0940	35.1589	6.3805	30.7918
632	43	7	0.3010	36.5187	6.3598	30.4804
633	43	6	-0.0940	37.1811	7.5470	30.1690
634	43	5	-0.2120	36.4835	8.7555	30.1677
635	43	4	-0.0400	35.1239	8.7760	30.4785
636	43	5	-0.2120	34.4616	7.5886	30.7910
637	43	3	0.0430	34.6369	5.4445	31.0377
638	43	3	0.0430	38.2531	7.5308	29.9241
639	43	2	0.1240	37.0060	9.6914	29.9220
640	43	2	0.1240	33.3898	7.6051	31.0362
641	43	8	-0.0910	34.3886	10.0489	30.4772
642	43	1	0.2420	34.4321	10.4599	31.3878
643	43	1	0.2420	34.7998	10.6708	29.8108
644	43	9	-0.6180	37.4083	4.8181	30.4828
645	43	1	0.2420	33.4335	9.8819	30.2322
646	44	6	-0.0940	59.0961	49.0632	18.1233
647	44	7	0.3010	60.4559	49.0425	17.8119
648	44	6	-0.0940	61.1184	50.2297	17.5005
649	44	5	-0.2120	60.4207	51.4382	17.4992
650	44	4	-0.0400	59.0611	51.4588	17.8100
651	44	5	-0.2120	58.3988	50.2713	18.1225
652	44	3	0.0430	58.5741	48.1272	18.3692
653	44	3	0.0430	62.1903	50.2135	17.2557
654	44	2	0.1240	60.9433	52.3741	17.2535
655	44	2	0.1240	57.3271	50.2878	18.3677
656	44	8	-0.0910	58.3258	52.7316	17.8088
657	44	1	0.2420	58.3694	53.1427	18.7193
658	44	1	0.2420	58.7371	53.3535	17.1423
659	44	9	-0.6180	61.3456	47.5008	17.8143
660	44	1	0.2420	57.3708	52.5646	17.5638
661	45	6	-0.0940	39.0775	22.5354	8.5052
662	45	7	0.3010	40.4373	22.5146	8.1938
663	45	6	-0.0940	41.0998	23.7018	7.8824
664	45	5	-0.2120	40.4021	24.9103	7.8811
665	45	4	-0.0400	39.0425	24.9309	8.1919
666	45	5	-0.2120	38.3802	23.7434	8.5044
667	45	3	0.0430	38.5555	21.5993	8.7511
668	45	3	0.0430	42.1717	23.6856	7.6375
669	45	2	0.1240	40.9246	25.8462	7.6354
670	45	2	0.1240	37.3084	23.7599	8.7496
671	45	8	-0.0910	38.3072	26.2038	8.1906
672	45	1	0.2420	38.3508	26.6148	9.1012
673	45	1	0.2420	38.7185	26.8256	7.5242
674	45	9	-0.6180	41.3270	20.9729	8.1962
675	45	1	0.2420	37.3522	26.0368	7.9456
676	46	6	-0.0940	51.9903	21.6102	23.4782
677	46	7	0.3010	53.3501	21.5895	23.1668
678	46	6	-0.0940	54.0126	22.7766	22.8554
679	46	5	-0.2120	53.3149	23.9852	22.8541
680	46	4	-0.0400	51.9553	24.0057	23.1649
681	46	5	-0.2120	51.2931	22.8182	23.4774
682	46	3	0.0430	51.4683	20.6742	23.7241
683	46	3	0.0430	55.0846	22.7605	22.6106
684	46	2	0.1240	53.8375	24.9211	22.6084
685	46	2	0.1240	50.2213	22.8347	23.7226
686	46	8	-0.0910	51.2200	25.2786	23.1637
687	46	1	0.2420	51.2636	25.6896	24.0742
688	46	1	0.2420	51.6313	25.9005	22.4972
689	46	9	-0.6180	54.2398	20.0477	23.1692
690	46	1	0.2420	50.2650	25.1116	22.9186
691	47	6	-0.0940	60.0305	21.6149	49.1952
692	47	7	0.3010	61.3903	21.5942	48.8838
693	47	6	-0.0940	62.0528	22.7814	48.5724
694	47	5	-0.2120	61.3551	23.9899	48.5711
695	47	4	-0.0400	59.9955	24.0105	48.8819
696	47	5	-0.2120	59.3332	22.8230	49.1944
697	47	3	0.0430	59.5085	20.6789	49.4411
698	47	3	0.0430	63.1247	22.7652	48.3275
699	47	2	0.1240	61.8776	24.9258	48.3254