# data file for 1 4ATP_NH3+_S- precursors and 1 Cu2+ atoms.
-3 21 xlo xhi
-3 21 ylo yhi
-3 21 zlo zhi

16 atoms
15 bonds
24 angles
30 dihedrals

10 atom types
5 bond types
6 angle types
8 dihedral types

Masses

	1	1.007940
	2	1.007940
	3	1.007940
	4	12.011000
	5	12.011000
	6	12.011000
	7	12.011000
	8	14.006740
	9	32.066000
	10	63.546000

Angle Coeffs

	1	0.00282100	119.99845663
	2	0.00110200	119.99722289
	3	0.00071270	109.47122085
	4	0.00083470	109.47122104
	5	0.00187100	120.01134316
	6	0.00141100	119.98077035

Bond Coeffs

	1	26.28860000	1.39516000
	2	20.38800000	1.09961030
	3	17.26870000	1.47000000
	4	15.18740000	1.78000000
	5	31.53220000	1.00000000

Dihedral Coeffs

	1	-0.60270000	180.00	1.80570000	0.00	0.61130000	180.00
	2	2.01256000	180.00	0.00000000	0.00	0.00000000	0.00
	3	1.18360000	0.00	0.19560000	0.00	0.00000000	0.00
	4	0.00000000	0.00	0.00949600	180.00	0.00000000	0.00
	5	3.46290000	180.00	-0.33120000	0.00	0.03201000	-180.00
	6	2.49320000	0.00	0.00000000	0.00	0.00000000	0.00
	7	2.91420000	180.00	-0.25860000	0.00	-0.00447900	0.00
	8	2.87850000	0.00	0.00000000	0.00	0.00000000	0.00

MiddleBondTorsion Coeffs

	1	0	0	0	0
	2	0	0	0	0
	3	0	0	0	0
	4	0	0	0	0
	5	0	0	0	0
	6	0	0	0	0
	7	0	0	0	0
	8	0	0	0	0

EndBondTorsion Coeffs

	1	0	0	0	0	0	0	0	0
	2	0	0	0	0	0	0	0	0
	3	0	0	0	0	0	0	0	0
	4	0	0	0	0	0	0	0	0
	5	0	0	0	0	0	0	0	0
	6	0	0	0	0	0	0	0	0
	7	0	0	0	0	0	0	0	0
	8	0	0	0	0	0	0	0	0

AngleTorsion Coeffs

	1	0	0	0	0	0	0	0	0
	2	0	0	0	0	0	0	0	0
	3	0	0	0	0	0	0	0	0
	4	0	0	0	0	0	0	0	0
	5	0	0	0	0	0	0	0	0
	6	0	0	0	0	0	0	0	0
	7	0	0	0	0	0	0	0	0
	8	0	0	0	0	0	0	0	0

AngleAngleTorsion Coeffs

	1	0	0	0
	2	0	0	0
	3	0	0	0
	4	0	0	0
	5	0	0	0
	6	0	0	0
	7	0	0	0
	8	0	0	0

BondBond13 Coeffs

	1	0	0	0
	2	0	0	0
	3	0	0	0
	4	0	0	0
	5	0	0	0
	6	0	0	0
	7	0	0	0
	8	0	0	0

PairIJ Coeffs

	1	1	0.00130100	2.71640000	10.00	10.00
	1	2	0.00161100	2.67820000	10.00	10.00
	1	3	0.00161100	2.67820000	10.00	10.00
	1	4	0.00198700	3.35060000	10.00	10.00
	1	5	0.00198700	3.35060000	10.00	10.00
	1	6	0.00198700	3.35060000	10.00	10.00
	1	7	0.00198700	3.35060000	10.00	10.00
	1	8	0.00335900	3.20820000	10.00	10.00
	1	9	0.00503800	3.35820000	10.00	10.00
	1	10	0.00203500	2.22670000	10.00	10.00
	2	2	0.00199500	2.64000000	10.00	10.00
	2	3	0.00199500	2.64000000	10.00	10.00
	2	4	0.00246100	3.31240000	10.00	10.00
	2	5	0.00246100	3.31240000	10.00	10.00
	2	6	0.00246100	3.31240000	10.00	10.00
	2	7	0.00246100	3.31240000	10.00	10.00
	2	8	0.00415900	3.17000000	10.00	10.00
	2	9	0.00623900	3.32000000	10.00	10.00
	2	10	0.00252000	2.18850000	10.00	10.00
	3	3	0.00199500	2.64000000	10.00	10.00
	3	4	0.00246100	3.31240000	10.00	10.00
	3	5	0.00246100	3.31240000	10.00	10.00
	3	6	0.00246100	3.31240000	10.00	10.00
	3	7	0.00246100	3.31240000	10.00	10.00
	3	8	0.00415900	3.17000000	10.00	10.00
	3	9	0.00623900	3.32000000	10.00	10.00
	3	10	0.00252000	2.18850000	10.00	10.00
	4	4	0.00303600	3.98480000	10.00	10.00
	4	5	0.00303600	3.98480000	10.00	10.00
	4	6	0.00303600	3.98480000	10.00	10.00
	4	7	0.00303600	3.98480000	10.00	10.00
	4	8	0.00513100	3.84240000	10.00	10.00
	4	9	0.00769600	3.99240000	10.00	10.00
	4	10	0.00310800	2.86090000	10.00	10.00
	5	5	0.00303600	3.98480000	10.00	10.00
	5	6	0.00303600	3.98480000	10.00	10.00
	5	7	0.00303600	3.98480000	10.00	10.00
	5	8	0.00513100	3.84240000	10.00	10.00
	5	9	0.00769600	3.99240000	10.00	10.00
	5	10	0.00310800	2.86090000	10.00	10.00
	6	6	0.00303600	3.98480000	10.00	10.00
	6	7	0.00303600	3.98480000	10.00	10.00
	6	8	0.00513100	3.84240000	10.00	10.00
	6	9	0.00769600	3.99240000	10.00	10.00
	6	10	0.00310800	2.86090000	10.00	10.00
	7	7	0.00303600	3.98480000	10.00	10.00
	7	8	0.00513100	3.84240000	10.00	10.00
	7	9	0.00769600	3.99240000	10.00	10.00
	7	10	0.00310800	2.86090000	10.00	10.00
	8	8	0.00867300	3.70000000	10.00	10.00
	8	9	0.01300900	3.85000000	10.00	10.00
	8	10	0.00525400	2.71850000	10.00	10.00
	9	9	0.01951400	4.00000000	10.00	10.00
	9	10	0.00788100	2.86850000	10.00	10.00
	10	10	0.00318300	1.73700000	10.00	10.00

Atoms

1	1	6	-0.0940	13.2705	4.8598	3.3646
2	1	7	0.3010	14.6303	4.8391	3.0532
3	1	6	-0.0940	15.2927	6.0262	2.7418
4	1	5	-0.2120	14.5951	7.2348	2.7405
5	1	4	-0.0400	13.2355	7.2553	3.0513
6	1	5	-0.2120	12.5732	6.0678	3.3638
7	1	3	0.0430	12.7485	3.9238	3.6106
8	1	3	0.0430	16.3647	6.0101	2.4970
9	1	2	0.1240	15.1176	8.1707	2.4949
10	1	2	0.1240	11.5014	6.0843	3.6090
11	1	8	-0.0910	12.5002	8.5282	3.0501
12	1	1	0.2420	12.5437	8.9392	3.9607
13	1	1	0.2420	12.9114	9.1501	2.3836
14	1	9	-0.6180	15.5199	3.2973	3.0556
15	1	1	0.2420	11.5451	8.3612	2.8051
16	0	10	2.0000	10.7908	1.0742	6.1784

Bonds

1	1	1	2
2	1	1	6
3	2	1	7
4	1	2	3
5	4	2	14
6	1	3	4
7	2	3	8
8	1	4	5
9	2	4	9
10	1	5	6
11	3	5	11
12	2	6	10
13	5	11	12
14	5	11	13
15	5	11	15

Angles

1	1	2	1	6
2	2	2	1	7
3	2	6	1	7
4	1	1	2	3
5	6	1	2	14
6	6	3	2	14
7	1	2	3	4
8	2	2	3	8
9	2	4	3	8
10	1	3	4	5
11	2	3	4	9
12	2	5	4	9
13	1	4	5	6
14	5	4	5	11
15	5	6	5	11
16	1	1	6	5
17	2	1	6	10
18	2	5	6	10
19	3	5	11	12
20	3	5	11	13
21	3	5	11	15
22	4	12	11	13
23	4	12	11	15
24	4	13	11	15

Dihedrals

1	1	1	2	3	4
2	2	1	2	3	8
3	1	1	6	5	4
4	5	1	6	5	11
5	1	2	1	6	5
6	2	2	1	6	10
7	1	2	3	4	5
8	2	2	3	4	9
9	1	3	2	1	6
10	2	3	2	1	7
11	1	3	4	5	6
12	5	3	4	5	11
13	7	4	3	2	14
14	2	4	5	6	10
15	4	4	5	11	12
16	4	4	5	11	13
17	4	4	5	11	15
18	2	5	4	3	8
19	2	5	6	1	7
20	7	6	1	2	14
21	2	6	5	4	9
22	4	6	5	11	12
23	4	6	5	11	13
24	4	6	5	11	15
25	8	7	1	2	14
26	3	7	1	6	10
27	8	8	3	2	14
28	3	8	3	4	9
29	6	9	4	5	11
30	6	10	6	5	11
