
#########################################################################
dimension 3
atom_style full

# bonded potentials
bond_style harmonic
angle_style harmonic
dihedral_style hybrid opls class2

boundary p p p
units metal
neighbor 2 bin
neigh_modify check yes

timestep 0.001

read_data data.EtOCSMethyl_2000_$a
read_data data.EtOCSMethyl_2000_2.1
  1 = max bonds/atom
  1 = max angles/atom
  1 = max dihedrals/atom
  orthogonal box = (-4 -4 -4) to (138 138 138)
  3 by 4 by 4 processor grid
  17600 atoms
  8000 bonds
  6000 angles
  4000 dihedrals
  2 = max # of 1-2 neighbors
  2 = max # of 1-3 neighbors
  2 = max # of 1-4 neighbors
  4 = max # of special neighbors

#########################################################################
# number of EtOCSMethyl precursors (referenced by moleculeID)
group precursors molecule <> $p $q
group precursors molecule <> 1 $q
group precursors molecule <> 1 2000
10000 atoms in group precursors

# number of free O atoms (referenced by atomID)
group freeO id <> $r $s
group freeO id <> 10001 $s
group freeO id <> 10001 17600
7600 atoms in group freeO

# number of porogen molecules (referenced by moleculeID)
group porogen molecule <> $t $v
group porogen molecule <> 2001 $v
group porogen molecule <> 2001 2000
0 atoms in group porogen

group active union precursors freeO porogen
17600 atoms in group active
group activematrix union precursors freeO
17600 atoms in group activematrix
group inactive subtract all active
0 atoms in group inactive
delete_atoms group inactive
Deleted 0 atoms, new total = 17600

#########################################################################
#soft potential to push the atoms apart
pair_style soft 3
pair_coeff	* * 0 500 3

thermo_style custom step temp tave press pave lx ly lz vol epair etotal

fix 1		active nvt 6000 6000 0.0100 drag 2.00
thermo		1000
run		20000
Memory usage per processor = 2.4035 Mbytes
Step Temp T_ave Press P_ave Lx Ly Lz Volume E_pair TotEng 
       0            0            0   -2.7230609   -2.7230609          142          142          142      2863288            0    11.848978 
    1000      5987.08      2993.54    4636.9351     2317.106          142          142          142      2863288    194.18501     16042.76 
    2000    6016.4282    4001.1694    4483.9916    3039.4012          142          142          142      2863288    97.242956     17020.69 
    3000    5981.7736    4496.3205    3778.1507    3224.0886          142          142          142      2863288    80.823438    17447.369 
    4000    6000.0696    4797.0703    3861.0956      3351.49          142          142          142      2863288    75.261786    17653.078 
    5000    6014.9056    5000.0428    3995.3056    3458.7926          142          142          142      2863288    75.470389    17731.148 
    6000    6021.5787    5145.9765    3886.2734    3519.8613          142          142          142      2863288     59.10908    17745.312 
    7000    5999.0564    5252.6115    3798.9138    3554.7429          142          142          142      2863288    55.923824    17736.574 
    8000    6006.9136    5336.4229    3987.2832    3602.8029          142          142          142      2863288    60.867194    17726.099 
    9000    6006.8422    5403.4648    3979.6998    3640.4926          142          142          142      2863288    51.943322    17779.244 
   10000    5998.5829    6003.3231    4004.0457    4041.1695          142          142          142      2863288    47.890926    17714.226 
   11000    5983.3118    6002.9463    3513.8941    3928.8654          142          142          142      2863288     46.35887    17744.448 
   12000    5970.2932    5998.3328     3831.502    3863.6164          142          142          142      2863288    51.728859    17744.512 
   13000    6007.4735    6000.9028    3857.0971     3871.511          142          142          142      2863288    43.509503    17741.792 
   14000    6003.6984    6001.2656    3638.6351     3849.265          142          142          142      2863288    38.254603    17708.678 
   15000    6002.6197     6000.037    4049.4526    3854.6797          142          142          142      2863288    41.493194    17760.519 
   16000    6000.9527    5997.9744    3963.1969     3862.372          142          142          142      2863288    37.367738    17754.573 
   17000    5987.4675    5996.8156    3855.5182    3868.0325          142          142          142      2863288    45.303141    17720.491 
   18000    6004.3727    5996.5615    3914.2345    3860.7276          142          142          142      2863288    37.069849    17741.145 
   19000    6003.0556    5996.1828    3653.6778    3828.1254          142          142          142      2863288    28.743797    17726.883 
   20000    5997.3518    5996.0597    3500.0215     3777.723          142          142          142      2863288    27.123652    17679.401 
Loop time of 41.1027 on 48 procs for 20000 steps with 17600 atoms

Pair  time (%) = 0.333639 (0.81172)
Bond  time (%) = 2.01588 (4.90449)
Neigh time (%) = 0.595309 (1.44834)
Comm  time (%) = 29.8258 (72.5639)
Outpt time (%) = 0.0270498 (0.0658102)
Other time (%) = 8.3051 (20.2057)

Nlocal:    366.667 ave 435 max 316 min
Histogram: 3 4 5 12 7 7 7 1 1 1
Nghost:    364.5 ave 404 max 317 min
Histogram: 3 3 3 3 6 8 9 5 6 2
Neighs:    368.125 ave 510 max 278 min
Histogram: 4 7 5 11 8 6 3 2 1 1

Total # of neighbors = 17670
Ave neighs/atom = 1.00398
Ave special neighs/atom = 2.04545
Neighbor list builds = 1724
Dangerous builds = 240

thermo		1
minimize		1e-4 10000 10000
Memory usage per processor = 3.1125 Mbytes
Step Temp T_ave Press P_ave Lx Ly Lz Volume E_pair TotEng 
   20000    5997.3518    5996.0597    3500.0215     3777.723          142          142          142      2863288    27.123652    17679.401 
   20001    5997.3518    5997.4637    3244.2004    3750.7536          142          142          142      2863288   0.17317984      16877.5 
   20002    5997.3518    6000.1696    4371.9054     3804.794          142          142          142      2863288     1.338947    15676.204 
   20003    5997.3518    5999.1574    4643.5402    3883.4383          142          142          142      2863288   0.47323739     15405.26 
   20004    5997.3518    5998.5227    4850.7033    4004.6451          142          142          142      2863288   0.20302756     15224.68 
   20005    5997.3518    5997.9959    5204.9723     4120.197          142          142          142      2863288    2.6294481    14948.834 
   20006    5997.3518    5997.6359    5124.8092    4236.3583          142          142          142      2863288 0.0026397089    14898.667 
   20007    5997.3518    5998.6243    5187.7942    4369.5859          142          142          142      2863288    2.7778824    14648.936 
   20008    5997.3518    5997.9222    5090.2175    4487.1842          142          142          142      2863288 0.0060506221    14614.362 
   20009    5997.3518    5997.3518    5237.3634    4645.5527          142          142          142      2863288   0.48202564    14480.789 
   20010    5997.3518    5997.3518    5198.6009    4815.4107          142          142          142      2863288  0.032777434    14441.807 
   20011    5997.3518    5997.3518    5220.8498    5013.0756          142          142          142      2863288   0.80595173    14356.834 
   20012    5997.3518    5997.3518    5176.2746    5093.5125          142          142          142      2863288 0.0052749252    14339.291 
   20013    5997.3518    5997.3518    5295.3655    5158.6951          142          142          142      2863288    1.4090733    14254.348 
   20014    5997.3518    5997.3518    5199.7674    5193.6015          142          142          142      2863288  0.013177082    14240.139 
   20015    5997.3518    5997.3518    5234.3044    5196.5347          142          142          142      2863288   0.66555499    14196.652 
   20016    5997.3518    5997.3518    5189.7357    5203.0273          142          142          142      2863288  0.013755838    14183.791 
   20017    5997.3518    5997.3518    5287.8026    5213.0282          142          142          142      2863288    1.5515165    14145.073 
   20018    5997.3518    5997.3518    5197.5532    5223.7618          142          142          142      2863288  0.054071697    14131.883 
   20019    5997.3518    5997.3518    5194.4305    5219.4685          142          142          142      2863288  0.015456024    14112.489 
   20020    5997.3518    5997.3518    5281.6612    5227.7745          142          142          142      2863288    1.5638852    14075.018 
   20021    5997.3518    5997.3518    5179.5608    5223.6456          142          142          142      2863288   0.17432488    14054.727 
   20022    5997.3518    5997.3518    5165.2015    5222.5383          142          142          142      2863288 0.0034094268    14046.041 
   20023    5997.3518    5997.3518    5277.8134    5220.7831          142          142          142      2863288    1.9760336    14015.555 
   20024    5997.3518    5997.3518    5214.8207    5222.2884          142          142          142      2863288   0.60998909    13997.059 
   20025    5997.3518    5997.3518    5155.9812    5214.4561          142          142          142      2863288 0.0092055647    13982.936 
   20026    5997.3518    5997.3518    5183.1802    5213.8005          142          142          142      2863288   0.96909102    13968.414 
   20027    5997.3518    5997.3518    5161.4679    5201.1671          142          142          142      2863288    0.2539723    13965.648 
   20028    5997.3518    5997.3518    5154.4508    5196.8568          142          142          142      2863288  0.027463457    13956.766 
   20029    5997.3518    5997.3518    5162.6567    5193.6794          142          142          142      2863288   0.24222946    13946.154 
   20030    5997.3518    5997.3518    5144.9903    5180.0123          142          142          142      2863288   0.18648044    13936.787 
   20031    5997.3518    5997.3518    5127.5769     5174.814          142          142          142      2863288 0.0088744821    13929.398 
   20032    5997.3518    5997.3518    5141.8567    5172.4795          142          142          142      2863288  0.047966297    13920.864 
   20033    5997.3518    5997.3518    5138.9152    5158.5896          142          142          142      2863288  0.022451088    13915.204 
   20034    5997.3518    5997.3518    5138.7309    5150.9807          142          142          142      2863288  0.055812282    13906.527 
   20035    5997.3518    5997.3518    5129.4051    5148.3231          142          142          142      2863288  0.030197973    13900.996 
   20036    5997.3518    5997.3518    5129.8963    5142.9947          142          142          142      2863288  0.060113656    13892.331 
   20037    5997.3518    5997.3518    5118.7295    5138.7208          142          142          142      2863288 0.0031223135    13888.685 
   20038    5997.3518    5997.3518    5127.0876    5135.9845          142          142          142      2863288  0.035872463    13881.858 
   20039    5997.3518    5997.3518    5119.4341    5131.6623          142          142          142      2863288 0.0071126042    13877.174 
   20040    5997.3518    5997.3518    5126.1148    5129.7747          142          142          142      2863288  0.063845054    13870.889 
   20041    5997.3518    5997.3518    5140.3951    5131.0565          142          142          142      2863288   0.31935651    13860.868 
   20042    5997.3518    5997.3518    5128.3592    5129.7068          142          142          142      2863288   0.31041509    13849.796 
   20043    5997.3518    5997.3518    5099.6008    5125.7753          142          142          142      2863288 0.0010510518    13846.681 
   20044    5997.3518    5997.3518    5156.1385    5127.5161          142          142          142      2863288   0.41050409    13840.669 
   20045    5997.3518    5997.3518    5209.7989    5135.5555          142          142          142      2863288    1.1102797    13835.119 
   20046    5997.3518    5997.3518    5267.9591    5149.3618          142          142          142      2863288    2.9876305    13828.304 
   20047    5997.3518    5997.3518    5196.5679    5157.1456          142          142          142      2863288    1.3470515    13815.639 
   20048    5997.3518    5997.3518    5097.9926    5154.2361          142          142          142      2863288  0.012785907    13808.216 
   20049    5997.3518    5997.3518    5113.4675    5153.6394          142          142          142      2863288   0.11955487    13803.142 
   20050    5997.3518    5997.3518    5111.8046    5152.2084          142          142          142      2863288  0.057318133    13801.941 
   20051    5997.3518    5997.3518    5107.1802    5148.8869          142          142          142      2863288  0.023577671    13799.196 
   20052    5997.3518    5997.3518    5105.3515    5146.5861          142          142          142      2863288  0.084366506    13796.524 
   20053    5997.3518    5997.3518    5091.7385    5145.7999          142          142          142      2863288  0.012664118    13795.551 
   20054    5997.3518    5997.3518    5109.5359    5141.1397          142          142          142      2863288  0.079182816    13792.567 
   20055    5997.3518    5997.3518    5099.5332    5130.1131          142          142          142      2863288  0.009589449    13791.708 
   20056    5997.3518    5997.3518     5108.024    5114.1196          142          142          142      2863288   0.07790348    13789.102 
   20057    5997.3518    5997.3518    5112.3502    5105.6978          142          142          142      2863288   0.17267568    13787.242 
   20058    5997.3518    5997.3518    5111.2544     5107.024          142          142          142      2863288   0.20835679    13782.561 
   20059    5997.3518    5997.3518    5083.1471     5103.992          142          142          142      2863288 0.0031221694    13780.238 
   20060    5997.3518    5997.3518    5102.3652     5103.048          142          142          142      2863288  0.030654481    13778.669 
   20061    5997.3518    5997.3518    5097.9016    5102.1202          142          142          142      2863288 0.0027116668    13778.171 
   20062    5997.3518    5997.3518    5102.6077    5101.8458          142          142          142      2863288  0.081690226     13776.53 
   20063    5997.3518    5997.3518    5106.1384    5103.2858          142          142          142      2863288   0.16530461    13775.628 
   20064    5997.3518    5997.3518    5160.9422    5108.4264          142          142          142      2863288    1.1720449    13772.851 
   20065    5997.3518    5997.3518    5131.5556    5111.6286          142          142          142      2863288     1.182539    13768.906 
   20066    5997.3518    5997.3518    5105.5584    5111.3821          142          142          142      2863288    0.8015166    13766.007 
   20067    5997.3518    5997.3518     5084.653    5108.6124          142          142          142      2863288   0.53754667     13763.33 
   20068    5997.3518    5997.3518    5086.7439    5106.1613          142          142          142      2863288   0.40027543    13761.644 
   20069    5997.3518    5997.3518    5060.8838     5103.935          142          142          142      2863288 0.0014709141    13760.651 
   20070    5997.3518    5997.3518    5097.2572    5103.4242          142          142          142      2863288 0.0021841249    13759.296 
   20071    5997.3518    5997.3518    5144.8184    5108.1159          142          142          142      2863288   0.20107488    13756.858 
   20072    5997.3518    5997.3518    5126.7775    5110.5328          142          142          142      2863288  0.075965112    13756.337 
   20073    5997.3518    5997.3518    5112.4377    5111.1628          142          142          142      2863288  0.052929395     13755.78 
   20074    5997.3518    5997.3518    5096.2895    5104.6975          142          142          142      2863288   0.18242823     13755.02 
   20075    5997.3518    5997.3518    5080.8215    5099.6241          142          142          142      2863288   0.17697716    13754.252 
   20076    5997.3518    5997.3518    5077.1568    5096.7839          142          142          142      2863288   0.30367004    13753.342 
   20077    5997.3518    5997.3518    5094.6036     5097.779          142          142          142      2863288   0.32334959    13751.911 
   20078    5997.3518    5997.3518     5107.107    5099.8153          142          142          142      2863288   0.35684673    13750.473 
   20079    5997.3518    5997.3518    5106.4503    5104.3719          142          142          142      2863288   0.13730723    13749.508 
   20080    5997.3518    5997.3518     5111.139    5105.7601          142          142          142      2863288   0.12118778    13748.293 
   20081    5997.3518    5997.3518    5101.8997    5101.4682          142          142          142      2863288 0.0010101726    13748.055 
   20082    5997.3518    5997.3518    5080.7277    5096.8633          142          142          142      2863288 0.0044682471    13747.315 
   20083    5997.3518    5997.3518    5096.8712    5095.3066          142          142          142      2863288   0.29981772     13746.56 
   20084    5997.3518    5997.3518     5070.495    5092.7272          142          142          142      2863288   0.06588205    13745.731 
   20085    5997.3518    5997.3518    5082.8516    5092.9302          142          142          142      2863288  0.085342474    13745.139 
   20086    5997.3518    5997.3518    5097.6608    5094.9806          142          142          142      2863288   0.10202768    13744.714 
   20087    5997.3518    5997.3518    5112.8569    5096.8059          142          142          142      2863288  0.089036559    13744.243 
   20088    5997.3518    5997.3518    5127.7434    5098.8696          142          142          142      2863288   0.23101359    13743.685 
   20089    5997.3518    5997.3518    5126.3045     5100.855          142          142          142      2863288   0.20219863    13742.779 
   20090    5997.3518    5997.3518    5113.1442    5101.0555          142          142          142      2863288   0.24292168    13741.787 
   20091    5997.3518    5997.3518    5091.3719    5100.0027          142          142          142      2863288  0.094836468    13741.013 
   20092    5997.3518    5997.3518    5085.3151    5100.4615          142          142          142      2863288  0.086810581    13740.462 
   20093    5997.3518    5997.3518    5085.5806    5099.3324          142          142          142      2863288  0.058770025    13739.952 
   20094    5997.3518    5997.3518    5074.9923    5099.7821          142          142          142      2863288 3.7675324e-05    13739.779 
   20095    5997.3518    5997.3518    5092.9246    5100.7894          142          142          142      2863288  0.034659567    13739.219 
   20096    5997.3518    5997.3518    5098.0923    5100.8326          142          142          142      2863288    0.0101443     13738.99 
   20097    5997.3518    5997.3518    5105.8539    5100.1323          142          142          142      2863288  0.081047566    13738.091 
   20098    5997.3518    5997.3518    5091.3841    5096.4964          142          142          142      2863288 0.0070693938    13737.858 
   20099    5997.3518    5997.3518    5090.1883    5092.8847          142          142          142      2863288   0.02924966      13737.3 
   20100    5997.3518    5997.3518    5089.7679    5090.5471          142          142          142      2863288   0.03414903    13736.947 
   20101    5997.3518    5997.3518    5082.9371    5089.7036          142          142          142      2863288 0.0013632111    13736.339 
   20102    5997.3518    5997.3518    5087.2783       5089.9          142          142          142      2863288 0.00012754009    13735.948 
   20103    5997.3518    5997.3518    5110.2259    5092.3645          142          142          142      2863288   0.10346829    13735.411 
   20104    5997.3518    5997.3518    5109.0768    5095.7729          142          142          142      2863288  0.057287098    13735.167 
   20105    5997.3518    5997.3518    5120.5818    5098.5387          142          142          142      2863288    0.1564068    13734.725 
   20106    5997.3518    5997.3518    5114.8958     5100.219          142          142          142      2863288   0.14919985    13734.312 
   20107    5997.3518    5997.3518    5100.4843     5099.682          142          142          142      2863288  0.072912958    13733.906 
   20108    5997.3518    5997.3518    5100.0628    5100.5499          142          142          142      2863288   0.10699779    13733.315 
   20109    5997.3518    5997.3518    5083.9623    5099.9273          142          142          142      2863288  0.063381093    13733.049 
   20110    5997.3518    5997.3518    5075.4861    5098.4991          142          142          142      2863288 0.00036419859    13732.761 
   20111    5997.3518    5997.3518     5093.065    5099.5119          142          142          142      2863288 0.0033675465    13732.223 
   20112    5997.3518    5997.3518    5110.1731    5101.8014          142          142          142      2863288   0.12715409     13731.73 
   20113    5997.3518    5997.3518    5108.3521     5101.614          142          142          142      2863288  0.025532623    13731.488 
   20114    5997.3518    5997.3518    5108.1039    5101.5167          142          142          142      2863288  0.042879899    13731.266 
   20115    5997.3518    5997.3518    5095.3227    5098.9908          142          142          142      2863288  0.033435014    13731.055 
   20116    5997.3518    5997.3518     5091.876    5096.6888          142          142          142      2863288  0.033494828    13730.862 
   20117    5997.3518    5997.3518    5079.9614    5094.6365          142          142          142      2863288 0.00022105369    13730.747 
   20118    5997.3518    5997.3518    5098.3319    5094.4635          142          142          142      2863288 0.0096285712     13730.39 
   20119    5997.3518    5997.3518    5111.3384    5097.2011          142          142          142      2863288   0.01096784    13730.142 
   20120    5997.3518    5997.3518    5104.5331    5100.1058          142          142          142      2863288  0.050376136    13729.631 
   20121    5997.3518    5997.3518    5089.7273     5099.772          142          142          142      2863288  0.012462792    13729.479 
   20122    5997.3518    5997.3518    5094.8431     5098.239          142          142          142      2863288  0.077014132    13729.324 
   20123    5997.3518    5997.3518    5086.5723     5096.061          142          142          142      2863288  0.032737882    13729.119 
   20124    5997.3518    5997.3518    5095.9574    5094.8464          142          142          142      2863288  0.074061143    13728.796 
   20125    5997.3518    5997.3518     5096.522    5094.9663          142          142          142      2863288  0.096298929    13728.512 
   20126    5997.3518    5997.3518    5102.2129         5096          142          142          142      2863288   0.10522204     13727.92 
   20127    5997.3518    5997.3518    5096.4357    5097.6474          142          142          142      2863288  0.039976715    13727.655 
   20128    5997.3518    5997.3518    5098.7888    5097.6931          142          142          142      2863288   0.10466192     13727.36 
   20129    5997.3518    5997.3518    5093.1274     5095.872          142          142          142      2863288  0.041368464     13727.07 
   20130    5997.3518    5997.3518    5085.2769    5093.9464          142          142          142      2863288  3.05765e-05    13726.961 
   20131    5997.3518    5997.3518    5085.8287    5093.5565          142          142          142      2863288 6.4604256e-06    13726.692 
   20132    5997.3518    5997.3518    5096.6074     5093.733          142          142          142      2863288   0.05709122    13726.233 
   20133    5997.3518    5997.3518    5088.1239    5093.8881          142          142          142      2863288 0.0037431992    13726.085 
   20134    5997.3518    5997.3518     5095.165    5093.8089          142          142          142      2863288  0.050030075    13725.777 
   20135    5997.3518    5997.3518    5088.3203    5092.9887          142          142          142      2863288 0.0030125882    13725.677 
   20136    5997.3518    5997.3518    5102.5964    5093.0271          142          142          142      2863288   0.05998701    13725.244 
   20137    5997.3518    5997.3518    5098.0493    5093.1884          142          142          142      2863288  0.022543172    13725.049 
   20138    5997.3518    5997.3518    5108.7964    5094.1892          142          142          142      2863288   0.13138419    13724.455 
   20139    5997.3518    5997.3518    5093.6269    5094.2391          142          142          142      2863288  0.033183042    13724.132 
   20140    5997.3518    5997.3518    5084.8866    5094.2001          142          142          142      2863288 9.3661912e-08    13724.063 
   20141    5997.3518    5997.3518    5086.3729    5094.2545          142          142          142      2863288 6.9647184e-05    13723.904 
   20142    5997.3518    5997.3518    5109.6024     5095.554          142          142          142      2863288   0.06504925    13723.567 
   20143    5997.3518    5997.3518    5100.3811    5096.7797          142          142          142      2863288  0.043380324    13723.434 
   20144    5997.3518    5997.3518    5098.7148    5097.1347          142          142          142      2863288  0.031839563    13723.313 
   20145    5997.3518    5997.3518    5094.7688    5097.7796          142          142          142      2863288  0.027551197    13723.207 
   20146    5997.3518    5997.3518    5102.5877    5097.7787          142          142          142      2863288  0.054292729    13722.969 
   20147    5997.3518    5997.3518     5090.804    5097.0542          142          142          142      2863288  0.029911235    13722.863 
   20148    5997.3518    5997.3518    5086.6455    5094.8391          142          142          142      2863288 0.00038439232    13722.727 
   20149    5997.3518    5997.3518    5088.9731    5094.3737          142          142          142      2863288            0    13722.498 
   20150    5997.3518    5997.3518     5100.032    5095.8882          142          142          142      2863288  0.034781592    13722.166 
   20151    5997.3518    5997.3518    5092.4506     5096.496          142          142          142      2863288   0.01386177     13722.09 
   20152    5997.3518    5997.3518    5095.2068    5095.0564          142          142          142      2863288  0.024153125    13721.965 
   20153    5997.3518    5997.3518    5088.8526    5093.9036          142          142          142      2863288 0.0073485105    13721.867 
   20154    5997.3518    5997.3518    5084.7468    5092.5068          142          142          142      2863288 0.00014290039    13721.801 
   20155    5997.3518    5997.3518    5093.3822    5092.3681          142          142          142      2863288  0.010106689     13721.57 
   20156    5997.3518    5997.3518    5095.0842    5091.6178          142          142          142      2863288  0.018573943    13721.466 
   20157    5997.3518    5997.3518    5102.8535    5092.8227          142          142          142      2863288  0.031315137    13721.275 
   20158    5997.3518    5997.3518     5093.935    5093.5517          142          142          142      2863288 0.0088692968     13721.18 
   20159    5997.3518    5997.3518     5092.349    5093.8893          142          142          142      2863288  0.015249603    13721.065 
   20160    5997.3518    5997.3518    5094.8211    5093.3682          142          142          142      2863288  0.026910603    13720.909 
   20161    5997.3518    5997.3518    5107.7816    5094.9013          142          142          142      2863288   0.09291042    13720.695 
   20162    5997.3518    5997.3518    5093.8922    5094.7698          142          142          142      2863288  0.079613185     13720.44 
   20163    5997.3518    5997.3518    5092.7556    5095.1601          142          142          142      2863288  0.034436795    13720.229 
   20164    5997.3518    5997.3518    5093.8628    5096.0717          142          142          142      2863288  0.036823685    13720.064 
   20165    5997.3518    5997.3518    5092.9302    5096.0265          142          142          142      2863288  0.020231414    13719.818 
   20166    5997.3518    5997.3518    5092.7837    5095.7965          142          142          142      2863288  0.048397799    13719.547 
   20167    5997.3518    5997.3518     5086.967    5094.2078          142          142          142      2863288  0.014257511    13719.389 
   20168    5997.3518    5997.3518    5085.5856    5093.3729          142          142          142      2863288  0.011458027     13719.01 
   20169    5997.3518    5997.3518    5097.4489    5093.8829          142          142          142      2863288  0.058202836    13718.667 
   20170    5997.3518    5997.3518    5093.9798    5093.7987          142          142          142      2863288   0.01998968    13718.488 
   20171    5997.3518    5997.3518    5090.1322    5092.0338          142          142          142      2863288  0.020277816    13718.083 
   20172    5997.3518    5997.3518    5089.1331    5091.5579          142          142          142      2863288  0.060812319    13717.955 
   20173    5997.3518    5997.3518    5090.5027    5091.3326          142          142          142      2863288  0.040991375    13717.675 
   20174    5997.3518    5997.3518      5088.93    5090.8393          142          142          142      2863288   0.04196292    13717.371 
   20175    5997.3518    5997.3518    5090.8015    5090.6264          142          142          142      2863288  0.047353103    13717.076 
   20176    5997.3518    5997.3518     5087.237    5090.0718          142          142          142      2863288  0.025110612    13716.867 
   20177    5997.3518    5997.3518    5087.9193     5090.167          142          142          142      2863288  0.015512186    13716.559 
   20178    5997.3518    5997.3518    5088.8022    5090.4887          142          142          142      2863288  0.028158422    13716.241 
   20179    5997.3518    5997.3518    5084.3741    5089.1812          142          142          142      2863288  0.018315786    13716.016 
   20180    5997.3518    5997.3518    5085.6613    5088.3494          142          142          142      2863288  0.018600494    13715.768 
   20181    5997.3518    5997.3518    5090.4965    5088.3858          142          142          142      2863288  0.035318554      13715.6 
   20182    5997.3518    5997.3518    5090.3865    5088.5111          142          142          142      2863288  0.027151837    13715.375 
   20183    5997.3518    5997.3518    5094.4079    5088.9016          142          142          142      2863288  0.046912536    13715.152 
   20184    5997.3518    5997.3518    5090.1606    5089.0247          142          142          142      2863288  0.021732627    13715.029 
   20185    5997.3518    5997.3518    5089.9743     5088.942          142          142          142      2863288  0.032341804    13714.833 
   20186    5997.3518    5997.3518    5088.1104    5089.0293          142          142          142      2863288   0.02419856     13714.66 
   20187    5997.3518    5997.3518    5087.1595    5088.9533          142          142          142      2863288  0.024417807    13714.453 
   20188    5997.3518    5997.3518    5087.0704    5088.7802          142          142          142      2863288  0.018307425    13714.331 
   20189    5997.3518    5997.3518     5090.586    5089.4013          142          142          142      2863288  0.020217846    13714.134 
   20190    5997.3518    5997.3518    5089.9578     5089.831          142          142          142      2863288  0.026374896    13713.966 
   20191    5997.3518    5997.3518    5085.4877    5089.3301          142          142          142      2863288 0.0086886409    13713.862 
   20192    5997.3518    5997.3518    5084.8417    5088.7756          142          142          142      2863288 0.0061987459     13713.68 
   20193    5997.3518    5997.3518    5093.0079    5088.6356          142          142          142      2863288  0.034588723    13713.426 
   20194    5997.3518    5997.3518    5086.6277    5088.2823          142          142          142      2863288 0.0038249674    13713.323 
   20195    5997.3518    5997.3518     5085.578    5087.8427          142          142          142      2863288 0.0010350474    13713.161 
   20196    5997.3518    5997.3518    5089.4526    5087.9769          142          142          142      2863288  0.015844179    13712.795 
   20197    5997.3518    5997.3518    5092.8972    5088.5507          142          142          142      2863288  0.033665229    13712.648 
   20198    5997.3518    5997.3518     5092.742    5089.1179          142          142          142      2863288  0.033722083    13712.479 
   20199    5997.3518    5997.3518    5087.5526    5088.8145          142          142          142      2863288  0.014535248    13712.386 
   20200    5997.3518    5997.3518    5091.8408    5089.0028          142          142          142      2863288  0.024749565    13712.275 
   20201    5997.3518    5997.3518    5096.7544    5090.1295          142          142          142      2863288  0.042392454    13712.146 
   20202    5997.3518    5997.3518    5095.3411    5091.1794          142          142          142      2863288  0.037900118    13711.942 
   20203    5997.3518    5997.3518    5091.2011    5090.9987          142          142          142      2863288  0.023811862    13711.804 
   20204    5997.3518    5997.3518      5089.83     5091.319          142          142          142      2863288  0.012642705    13711.706 
   20205    5997.3518    5997.3518    5088.3385     5091.595          142          142          142      2863288  0.010206326    13711.633 
   20206    5997.3518    5997.3518    5089.4859    5091.5984          142          142          142      2863288  0.010209165    13711.508 
   20207    5997.3518    5997.3518     5092.897    5091.5983          142          142          142      2863288  0.023286482    13711.414 
   20208    5997.3518    5997.3518    5087.6111    5091.0853          142          142          142      2863288 0.0038154253    13711.348 
   20209    5997.3518    5997.3518    5087.4357    5091.0736          142          142          142      2863288 0.0030576592    13711.219 
   20210    5997.3518    5997.3518    5091.9988    5091.0894          142          142          142      2863288  0.024034428    13711.017 
   20211    5997.3518    5997.3518    5087.8419    5090.1981          142          142          142      2863288  0.006740894    13710.947 
   20212    5997.3518    5997.3518     5090.771    5089.7411          142          142          142      2863288  0.018341557    13710.851 
   20213    5997.3518    5997.3518    5088.7398     5089.495          142          142          142      2863288 0.0049792402      13710.8 
   20214    5997.3518    5997.3518    5092.6823    5089.7802          142          142          142      2863288  0.019876056    13710.639 
   20215    5997.3518    5997.3518    5090.2066     5089.967          142          142          142      2863288  0.012868412    13710.568 
   20216    5997.3518    5997.3518    5092.1688    5090.2353          142          142          142      2863288  0.025527986    13710.441 
   20217    5997.3518    5997.3518    5087.7804    5089.7237          142          142          142      2863288 0.0068930413    13710.391 
   20218    5997.3518    5997.3518    5088.4993    5089.8125          142          142          142      2863288 0.0088681763    13710.306 
   20219    5997.3518    5997.3518    5091.7558    5090.2445          142          142          142      2863288   0.02110925    13710.244 
   20220    5997.3518    5997.3518    5090.1521    5090.0598          142          142          142      2863288 0.0098436689    13710.152 
   20221    5997.3518    5997.3518      5090.77    5090.3526          142          142          142      2863288  0.014495422      13710.1 
   20222    5997.3518    5997.3518    5089.2691    5090.2024          142          142          142      2863288  0.010352639    13710.048 
   20223    5997.3518    5997.3518    5089.9017    5090.3186          142          142          142      2863288  0.017546817    13709.995 
   20224    5997.3518    5997.3518    5090.6826    5090.1186          142          142          142      2863288  0.015837841    13709.935 
   20225    5997.3518    5997.3518    5090.0384    5090.1018          142          142          142      2863288  0.013717727    13709.889 
   20226    5997.3518    5997.3518    5088.9535    5089.7803          142          142          142      2863288 0.0091085846    13709.834 
   20227    5997.3518    5997.3518    5088.6259    5089.8648          142          142          142      2863288  0.013126808    13709.764 
   20228    5997.3518    5997.3518    5089.6126    5089.9762          142          142          142      2863288 0.0079751966    13709.705 
   20229    5997.3518    5997.3518    5088.7826    5089.6788          142          142          142      2863288  0.013258256    13709.644 
   20230    5997.3518    5997.3518    5087.3493    5089.3986          142          142          142      2863288 0.0034236781    13709.594 
   20231    5997.3518    5997.3518    5089.7066    5089.2922          142          142          142      2863288  0.011357077    13709.518 
   20232    5997.3518    5997.3518    5087.6547    5089.1308          142          142          142      2863288 0.0051310362    13709.474 
   20233    5997.3518    5997.3518    5090.7495    5089.2156          142          142          142      2863288  0.017332563    13709.398 
   20234    5997.3518    5997.3518    5087.1013    5088.8574          142          142          142      2863288  0.002225508    13709.364 
   20235    5997.3518    5997.3518    5087.5789    5088.6115          142          142          142      2863288  0.005366783    13709.294 
   20236    5997.3518    5997.3518    5089.6975    5088.6859          142          142          142      2863288  0.011297385    13709.242 
   20237    5997.3518    5997.3518    5091.3422    5088.9575          142          142          142      2863288  0.018543928    13709.182 
   20238    5997.3518    5997.3518    5088.5434    5088.8506          142          142          142      2863288 0.0093718694    13709.133 
   20239    5997.3518    5997.3518    5087.0198    5088.6743          142          142          142      2863288 0.0046531324    13709.094 
   20240    5997.3518    5997.3518    5090.6281    5089.0022          142          142          142      2863288 0.0097920856    13709.035 
   20241    5997.3518    5997.3518    5089.5622    5088.9878          142          142          142      2863288  0.014549391    13708.989 
   20242    5997.3518    5997.3518    5089.7531    5089.1976          142          142          142      2863288 0.0078873816    13708.949 
   20243    5997.3518    5997.3518    5089.6062    5089.0833          142          142          142      2863288  0.012947288    13708.901 
   20244    5997.3518    5997.3518    5087.3111    5089.1042          142          142          142      2863288 0.0063924848    13708.863 
   20245    5997.3518    5997.3518    5089.6438    5089.3107          142          142          142      2863288  0.010469447    13708.834 
   20246    5997.3518    5997.3518    5089.8051    5089.3215          142          142          142      2863288 0.0082880935    13708.792 
   20247    5997.3518    5997.3518     5088.743    5089.0616          142          142          142      2863288 0.0068190967    13708.769 
   20248    5997.3518    5997.3518    5088.8587    5089.0931          142          142          142      2863288  0.009727167    13708.742 
   20249    5997.3518    5997.3518    5089.5849    5089.3496          142          142          142      2863288 0.0099425112    13708.706 
   20250    5997.3518    5997.3518     5090.234    5089.3102          142          142          142      2863288 0.0098724773    13708.677 
   20251    5997.3518    5997.3518    5089.7435    5089.3283          142          142          142      2863288 0.0089876181    13708.637 
   20252    5997.3518    5997.3518    5088.8984    5089.2429          142          142          142      2863288 0.0076614088     13708.61 
   20253    5997.3518    5997.3518    5089.0354    5089.1858          142          142          142      2863288 0.0081618336    13708.573 
   20254    5997.3518    5997.3518    5089.5378    5089.4085          142          142          142      2863288 0.0089319498    13708.543 
   20255    5997.3518    5997.3518    5089.3774    5089.3818          142          142          142      2863288 0.0069811453    13708.509 
   20256    5997.3518    5997.3518    5089.1971     5089.321          142          142          142      2863288  0.010770809    13708.479 
   20257    5997.3518    5997.3518    5089.1947    5089.3662          142          142          142      2863288 0.0072441516     13708.45 
   20258    5997.3518    5997.3518    5089.0499    5089.3853          142          142          142      2863288 0.0065319255    13708.425 
   20259    5997.3518    5997.3518    5089.7825    5089.4051          142          142          142      2863288 0.0089691081    13708.397 
   20260    5997.3518    5997.3518    5089.4183    5089.3235          142          142          142      2863288 0.0066788728    13708.374 
   20261    5997.3518    5997.3518    5089.5503    5089.3042          142          142          142      2863288  0.006250836    13708.349 
   20262    5997.3518    5997.3518    5088.8892    5089.3033          142          142          142      2863288 0.0068048148    13708.321 
   20263    5997.3518    5997.3518    5089.7024      5089.37          142          142          142      2863288 0.0064661708    13708.303 
   20264    5997.3518    5997.3518    5088.7776    5089.2939          142          142          142      2863288  0.010189077    13708.276 
   20265    5997.3518    5997.3518    5087.7428    5089.1305          142          142          142      2863288 0.0082734944    13708.246 
   20266    5997.3518    5997.3518    5087.3419     5088.945          142          142          142      2863288 0.0031787862    13708.209 
   20267    5997.3518    5997.3518    5090.3116    5089.0567          142          142          142      2863288  0.010368898    13708.176 
   20268    5997.3518    5997.3518    5090.2109    5089.1728          142          142          142      2863288 0.0057904187    13708.158 
   20269    5997.3518    5997.3518    5089.6459    5089.1591          142          142          142      2863288 0.0080257049    13708.124 
   20270    5997.3518    5997.3518    5088.9898    5089.1162          142          142          142      2863288 0.0068211676    13708.096 
   20271    5997.3518    5997.3518    5089.1214    5089.0734          142          142          142      2863288 0.0077666273    13708.072 
   20272    5997.3518    5997.3518    5089.1509    5089.0995          142          142          142      2863288 0.0072642395    13708.052 
   20273    5997.3518    5997.3518    5087.9413    5088.9234          142          142          142      2863288 0.0043113916    13708.034 
   20274    5997.3518    5997.3518    5088.9716    5088.9428          142          142          142      2863288 0.0062443851    13708.016 
   20275    5997.3518    5997.3518    5089.0441    5089.0729          142          142          142      2863288  0.006551479    13707.997 
   20276    5997.3518    5997.3518    5089.4315    5089.2819          142          142          142      2863288 0.0063536539    13707.981 
   20277    5997.3518    5997.3518     5088.921    5089.1428          142          142          142      2863288 0.0048471874     13707.96 
   20278    5997.3518    5997.3518    5088.3209    5088.9538          142          142          142      2863288 0.0088211809    13707.935 
   20279    5997.3518    5997.3518    5087.6665    5088.7559          142          142          142      2863288 0.0063081679    13707.911 
   20280    5997.3518    5997.3518    5087.9868    5088.6556          142          142          142      2863288 0.0054009601    13707.893 
   20281    5997.3518    5997.3518    5088.4745    5088.5909          142          142          142      2863288 0.0040020424    13707.864 
   20282    5997.3518    5997.3518     5090.072     5088.683          142          142          142      2863288 0.0081199411    13707.845 
   20283    5997.3518    5997.3518    5088.9547    5088.7844          142          142          142      2863288  0.004995539    13707.823 
   20284    5997.3518    5997.3518    5088.2375     5088.711          142          142          142      2863288 0.0065580475    13707.801 
   20285    5997.3518    5997.3518    5089.6743     5088.774          142          142          142      2863288 0.0055163743    13707.788 
   20286    5997.3518    5997.3518    5088.6745    5088.6983          142          142          142      2863288 0.0058074686    13707.771 
   20287    5997.3518    5997.3518    5088.8337    5088.6896          142          142          142      2863288  0.005070386    13707.753 
   20288    5997.3518    5997.3518    5089.0375    5088.7612          142          142          142      2863288 0.0050875582    13707.737 
   20289    5997.3518    5997.3518    5089.0837    5088.9029          142          142          142      2863288 0.0058836228    13707.719 
   20290    5997.3518    5997.3518    5089.6479     5089.069          142          142          142      2863288 0.0052478958    13707.703 
   20291    5997.3518    5997.3518    5088.7718    5089.0988          142          142          142      2863288 0.0039314339    13707.692 
   20292    5997.3518    5997.3518    5089.2754    5089.0191          142          142          142      2863288 0.0053902755    13707.676 
   20293    5997.3518    5997.3518    5088.9883    5089.0225          142          142          142      2863288 0.0042799796    13707.662 
   20294    5997.3518    5997.3518    5089.1952    5089.1182          142          142          142      2863288 0.0050535272    13707.649 
   20295    5997.3518    5997.3518    5089.2121     5089.072          142          142          142      2863288 0.0052926672    13707.629 
   20296    5997.3518    5997.3518    5088.8661    5089.0912          142          142          142      2863288 0.0050476479    13707.616 
   20297    5997.3518    5997.3518    5088.3691    5089.0447          142          142          142      2863288 0.0034825223    13707.597 
   20298    5997.3518    5997.3518    5088.3201     5088.973          142          142          142      2863288 0.0038842108     13707.58 
   20299    5997.3518    5997.3518    5088.5342     5088.918          142          142          142      2863288 0.0055327824    13707.566 
   20300    5997.3518    5997.3518    5088.7694    5088.8302          142          142          142      2863288 0.0045230815    13707.553 
   20301    5997.3518    5997.3518     5089.073    5088.8603          142          142          142      2863288 0.0037918298     13707.54 
   20302    5997.3518    5997.3518    5089.5741    5088.8902          142          142          142      2863288 0.0043283705    13707.527 
   20303    5997.3518    5997.3518    5089.0008    5088.8914          142          142          142      2863288 0.0039350826    13707.511 
   20304    5997.3518    5997.3518    5089.4676    5088.9187          142          142          142      2863288 0.0031530293      13707.5 
   20305    5997.3518    5997.3518    5089.8558     5088.983          142          142          142      2863288 0.0047924733    13707.489 
   20306    5997.3518    5997.3518    5088.4337    5088.9398          142          142          142      2863288 0.0028805501    13707.476 
   20307    5997.3518    5997.3518    5088.4678    5088.9497          142          142          142      2863288 0.0046504995    13707.462 
   20308    5997.3518    5997.3518    5088.4309    5088.9607          142          142          142      2863288 0.0032670546    13707.449 
   20309    5997.3518    5997.3518     5088.445    5088.9518          142          142          142      2863288 0.0031970334    13707.439 
   20310    5997.3518    5997.3518    5088.4929    5088.9242          142          142          142      2863288 0.0033798886    13707.428 
   20311    5997.3518    5997.3518    5089.0318      5088.92          142          142          142      2863288 0.0038442143    13707.416 
   20312    5997.3518    5997.3518    5089.0786    5088.8705          142          142          142      2863288 0.0043200453    13707.405 
   20313    5997.3518    5997.3518    5088.7738    5088.8478          142          142          142      2863288 0.0036133228    13707.392 
   20314    5997.3518    5997.3518    5089.0496     5088.806          142          142          142      2863288 0.0032923919    13707.383 
   20315    5997.3518    5997.3518    5088.9603    5088.7164          142          142          142      2863288 0.0037290995    13707.372 
   20316    5997.3518    5997.3518    5089.6519    5088.8383          142          142          142      2863288 0.0036650105    13707.357 
   20317    5997.3518    5997.3518    5088.9441    5088.8859          142          142          142      2863288 0.0030708871    13707.349 
   20318    5997.3518    5997.3518    5088.7825     5088.921          142          142          142      2863288 0.0036856196    13707.338 
   20319    5997.3518    5997.3518    5088.1932    5088.8959          142          142          142      2863288  0.003899787    13707.329 
   20320    5997.3518    5997.3518    5088.7668    5088.9233          142          142          142      2863288 0.0028144422    13707.319 
   20321    5997.3518    5997.3518    5089.0475    5088.9248          142          142          142      2863288 0.0032273088    13707.309 
   20322    5997.3518    5997.3518    5088.8347    5088.9004          142          142          142      2863288 0.0034114605    13707.299 
   20323    5997.3518    5997.3518    5089.4766    5088.9707          142          142          142      2863288  0.003357224     13707.29 
   20324    5997.3518    5997.3518    5089.0868    5088.9744          142          142          142      2863288 0.0031536951    13707.281 
   20325    5997.3518    5997.3518    5089.2336    5089.0018          142          142          142      2863288 0.0027112662    13707.273 
   20326    5997.3518    5997.3518    5088.9142     5088.928          142          142          142      2863288 0.0029224605    13707.265 
   20327    5997.3518    5997.3518    5088.9735     5088.931          142          142          142      2863288 0.0035261337    13707.258 
   20328    5997.3518    5997.3518    5089.2202    5088.9747          142          142          142      2863288 0.0035809337    13707.248 
   20329    5997.3518    5997.3518    5088.8282    5089.0382          142          142          142      2863288 0.0020505343    13707.241 
   20330    5997.3518    5997.3518    5088.6494    5089.0265          142          142          142      2863288 0.0020961833    13707.233 
   20331    5997.3518    5997.3518    5088.7846    5089.0002          142          142          142      2863288  0.002662562    13707.226 
   20332    5997.3518    5997.3518    5089.0155    5089.0183          142          142          142      2863288 0.0020607612    13707.218 
   20333    5997.3518    5997.3518    5088.9229    5088.9629          142          142          142      2863288 0.0024531207    13707.211 
   20334    5997.3518    5997.3518     5090.049    5089.0591          142          142          142      2863288 0.0031374769    13707.204 
   20335    5997.3518    5997.3518    5086.0425      5088.74          142          142          142      2863288 2.7828131e-06    13707.201 
Loop time of 5.57254 on 48 procs for 335 steps with 17600 atoms

Minimization stats:
  E initial, next-to-last, final = 4036.33 64.1329 64.1296
  Gradient 2-norm init/final= 649.586 0.792454
  Gradient inf-norm init/final= 42.163 0.0526863
  Iterations = 335
  Force evaluations = 2085

Pair  time (%) = 0.075274 (1.3508)
Bond  time (%) = 0.222512 (3.99301)
Neigh time (%) = 0.000707616 (0.0126983)
Comm  time (%) = 2.7286 (48.965)
Outpt time (%) = 0.456225 (8.18702)
Other time (%) = 2.08923 (37.4915)

Nlocal:    366.667 ave 440 max 315 min
Histogram: 2 5 5 12 7 8 7 0 1 1
Nghost:    364.188 ave 404 max 314 min
Histogram: 3 1 3 3 7 6 8 11 5 1
Neighs:    362.792 ave 521 max 266 min
Histogram: 2 10 4 10 11 5 4 1 0 1

Total # of neighbors = 17414
Ave neighs/atom = 0.989432
Ave special neighs/atom = 2.04545
Neighbor list builds = 2
Dangerous builds = 0

#########################################################################
# simulated annealing to create structure
pair_style sw
pair_coeff * * OCS.sw Si O C

thermo		100

unfix		1
fix		1 active npt 9000 3000 0.0100 xyz 90000 60000 0.1000 drag 2.00
run		50000
Memory usage per processor = 2.63629 Mbytes
Step Temp T_ave Press P_ave Lx Ly Lz Volume E_pair TotEng 
   20335    5997.3518    5997.3518    10828.826      5088.74          142          142          142      2863288    3478.2921    17185.493 
   20400    8799.1451    6277.5311    88251.865    13405.035    86.986613    86.986613    86.986613    658199.07   -317.33594    24659.581 
   20500     9001.383    6577.9343    86475.223     21543.66    78.860528    78.860528    78.860528    490432.28   -4899.4241    20912.867 
   20600    8903.8998    6868.5891    90880.795    30122.818    78.035904    78.035904    78.035904    475207.63   -6118.3446    19809.347 
   20700    8920.9292    7160.9468    85365.615    38150.496     77.76954     77.76954     77.76954    470358.07   -6623.6112    19444.276 
   20800      8936.89    7454.9006    88829.283     46524.56    77.517556    77.517556    77.517556    465800.79   -6768.0191    19286.394 
   20900    8873.5275    7742.5182     91708.64    55186.545     77.40827     77.40827     77.40827    463833.47   -6884.6714    19007.674 
   21000    8936.4899     8036.432    89299.267     63607.57    77.407412    77.407412    77.407412    463818.05   -6921.2732    19158.318 
   21100    8993.6093    8336.0577    88559.515     71954.63    77.382329    77.382329    77.382329     463367.3   -6983.1254    19183.914 
   21200    8869.7159    8623.2941    92110.416    80656.666    77.301052    77.301052    77.301052    461908.78   -6962.8792    18841.642 
   21300    8934.9558    8917.0545    90494.767    89197.539    77.338598    77.338598    77.338598    462582.16    -6979.852    18945.794 
   21400    8874.7713    8924.6172    86633.148    89035.667    77.301335    77.301335    77.301335    461913.85   -7051.5144    18760.482 
   21500    8826.9854    8907.1774    88274.546    89215.599     77.25905     77.25905     77.25905    461156.24   -6971.4312    18722.167 
   21600     8820.825    8898.8699    89146.385    89042.158    77.134691    77.134691    77.134691    458932.95   -7090.8294    18613.723 
   21700    8829.6943    8889.7464    89770.615    89482.658    77.251355    77.251355    77.251355    461018.46   -6936.6082    18748.685 
   21800    8875.6387    8883.6213    86835.143    89283.244    77.220156    77.220156    77.220156    460460.13   -7087.4022    18736.896 
   21900    8818.0187    8878.0704    90984.039    89210.784    77.266159    77.266159    77.266159    461283.55   -7121.9644    18657.085 
   22000    8825.1868    8866.9401    88970.503    89177.908    77.259044    77.259044    77.259044    461156.14   -7085.3483    18703.434 
   22100    8812.0517    8848.7844    89095.678    89231.524    77.270687    77.270687    77.270687    461364.66   -7041.6783    18740.861 
   22200    8791.8267    8840.9954    86676.535    88688.136    77.247263    77.247263    77.247263    460945.21   -7182.4864    18494.826 
   22300    8786.4925    8826.1491    88763.883    88515.047    77.163813    77.163813    77.163813    459452.95   -7225.3018     18251.41 
   22400    8712.4449    8809.9165    90599.008    88911.633    77.159826    77.159826    77.159826    459381.73   -7169.7607    18285.146 
   22500    8841.6833    8811.3863    93346.313     89418.81    77.196674    77.196674    77.196674    460040.19   -7091.0996    18603.407 
   22600    8718.7746    8801.1812    88181.283      89322.3    77.150679    77.150679    77.150679    459218.37   -7288.6485    18196.873 
   22700    8709.7664    8789.1884    87076.991    89052.938    77.166705    77.166705    77.166705     459504.6   -7345.0818    18202.578 
   22800    8708.2491    8772.4495    88487.663    89218.189     77.11569     77.11569     77.11569    458593.87    -7162.594    18223.926 
   22900    8678.0689    8758.4545    86280.869    88747.872    77.077533    77.077533    77.077533    457913.46   -7068.3986    18272.765 
   23000    8683.1154    8744.2474    87967.319    88647.554    77.184889    77.184889    77.184889    459829.52   -7099.2922    18138.994 
   23100     8684.988     8731.541    87321.608    88470.147    77.145952    77.145952    77.145952    459133.98   -7143.7634    18243.715 
   23200    8737.2297    8726.0813    86342.516    88436.745    77.065416    77.065416    77.065416    457697.54   -7362.9492    18087.589 
   23300    8671.1948    8714.5515    88481.491    88408.506    77.095173    77.095173    77.095173    458227.94   -7290.6289     18016.67 
   23400    8591.5749    8702.4645     86914.46    88040.051    77.129539    77.129539    77.129539    458840.98   -7333.7694     17805.29 
   23500    8615.6687    8679.8631    87408.632    87446.283    77.122637    77.122637    77.122637    458717.82   -7254.7582    17960.305 
   23600    8583.4592    8666.3315    88035.966    87431.751    76.999861    76.999861    76.999861    456530.53   -7345.5902    17701.642 
   23700     8631.107    8658.4656    86716.361    87395.688    76.993903    76.993903    76.993903    456424.56   -7347.7508    17763.572 
   23800    8551.0988    8642.7506    88138.074    87360.729    76.997222    76.997222    76.997222    456483.59   -7289.0628    17752.896 
   23900    8577.3885    8632.6825    88324.035    87565.046     77.09883     77.09883     77.09883    458293.15   -7292.9714    17804.219 
   24000    8545.1191    8618.8829    86429.928    87411.307    76.950068    76.950068    76.950068    455645.44   -7427.8224    17556.757 
   24100    8524.1699    8602.8011    88565.804    87535.727    77.079262    77.079262    77.079262    457944.29   -7421.7804    17459.497 
   24200    8520.6092     8581.139    87582.079    87659.683    77.042894    77.042894    77.042894    457296.38   -7353.2816    17550.159 
   24300    8504.3511    8564.4546    88795.036    87691.037    77.053441    77.053441    77.053441    457484.21   -7263.1553    17534.316 
   24400     8527.837    8558.0809    88670.097    87866.601     76.90321     76.90321     76.90321    454813.56   -7479.2898    17485.936 
   24500    8481.9384    8544.7078    86213.486    87747.086    76.876506    76.876506    76.876506    454339.93   -7459.0537    17352.837 
   24600     8545.151     8540.877    87585.499     87702.04    76.967411    76.967411    76.967411    455953.59   -7420.2513     17424.94 
   24700    8473.0921    8525.0755    84947.341    87525.138    76.888431    76.888431    76.888431     454551.4   -7612.6311     17193.61 
   24800    8398.8619    8509.8518    89447.097     87656.04      76.9319      76.9319      76.9319    455322.78   -7428.0184     17085.87 
   24900     8440.442    8496.1572    86992.772    87522.914    76.977025    76.977025    76.977025    456124.46    -7563.942    17115.139 
   25000    8436.1973     8485.265    86733.449    87553.266    77.005942    77.005942    77.005942     456638.7   -7484.1871    17164.427 
   25100    8402.6589    8473.1139    87605.198    87457.205    76.876254    76.876254    76.876254    454335.46   -7442.5045    17172.849 
   25200    8441.0767    8465.1606    87565.661    87455.564    76.839236    76.839236    76.839236    453679.46   -7573.9807    17149.243 
   25300    8354.8092    8450.2064    85407.048    87116.765    77.007376    77.007376    77.007376    456664.22    -7483.159    16959.063 
   25400    8402.5044    8437.6732     86129.43    86862.698    76.866396    76.866396    76.866396     454160.7    -7645.022    17014.312 
   25500    8431.1321    8432.5926    86003.063    86841.656    76.935252    76.935252    76.935252     455382.3   -7573.2843    17018.864 
   25600      8318.42    8409.9195    86056.527    86688.759    76.891461    76.891461    76.891461    454605.14   -7531.4854    16884.108 
   25700    8408.5663    8403.4669    84728.071    86666.832    76.938865    76.938865    76.938865    455446.45   -7563.9226    16926.351 
   25800    8340.8091    8397.6616    87383.264    86460.448    76.758616    76.758616    76.758616    452252.94   -7571.4158    16771.248 
   25900    8311.4701    8384.7644    83266.289      86087.8    76.917144    76.917144    76.917144    455060.82   -7653.6885    16583.123 
   26000    8337.0884    8374.8535     85578.29    85972.284    76.922774    76.922774    76.922774    455160.76   -7726.3345    16679.127 
   26100    8304.5359    8365.0412    87812.073    85992.972     76.86291     76.86291     76.86291    454098.92   -7655.4825     16563.01 
   26200    8358.0655    8356.7401    85914.424    85827.848    76.802417    76.802417    76.802417    453027.59   -7724.3021    16680.712 
   26300    8326.4729    8353.9065      85013.2    85788.463    76.799632    76.799632    76.799632    452978.32   -7750.4127     16592.36 
   26400    8249.4687    8338.6029    84528.863    85628.406    76.837997    76.837997    76.837997    453657.51   -7666.1042    16599.136 
   26500    8314.5035      8326.94     84770.18    85505.118    76.784004    76.784004    76.784004    452701.85   -7768.5175    16456.176 
   26600    8240.8985    8319.1879    86335.849     85533.05    76.751978    76.751978    76.751978    452135.63   -7805.9072    16275.382 
   26700    8278.0948    8306.1407    87775.104    85837.754      76.7967      76.7967      76.7967    452926.44    -7818.128    16316.357 
   26800    8190.2184    8291.0817    83232.456    85422.673    76.752955    76.752955    76.752955    452152.89   -7713.8224    16292.708 
   26900    8175.3117    8277.4658    83247.727    85420.817    76.812763    76.812763    76.812763    453210.71   -7876.5765    16099.896 
   27000    8215.4012    8265.2971    88685.386    85731.526    76.759991    76.759991    76.759991    452277.25   -7773.3181    16231.897 
   27100    8167.8605    8251.6296    87135.683    85663.887    76.642622    76.642622    76.642622    450205.78   -7842.0197    16043.625 
   27200    8177.3012    8233.5531    87486.565    85821.101    76.728466    76.728466    76.728466    451720.24   -7629.3243    16311.524 
   27300    8124.6229    8213.3681    89397.518    86259.533    76.714782    76.714782    76.714782     451478.6   -7697.1327    16176.137 
   27400    8192.1198    8207.6333    81866.447    85993.292    76.811648    76.811648    76.811648    453190.97   -7855.5399    16130.285 
   27500    8124.9195    8188.6749    84911.672    86007.441    76.715024    76.715024    76.715024    451482.87   -7861.3052    15944.308 
   27600    8163.8602     8180.971    86975.734    86071.429    76.754001    76.754001    76.754001    452171.39    -7723.133    16038.503 
   27700    8101.4019    8163.3017    84198.777    85713.797    76.749929    76.749929    76.749929    452099.42   -8022.6221     15731.49 
   27800     8124.709    8156.7508    84260.834    85816.634      76.6601      76.6601      76.6601    450513.84   -7937.0246    15794.465 
   27900    8155.2822    8154.7478    86959.782     86187.84     76.60987     76.60987     76.60987    449628.86   -7844.8281    15981.303 
   28000    8079.5915    8141.1669     86025.19     85921.82     76.54366     76.54366     76.54366     448464.1   -7996.3898    15733.352 
   28100     8077.986    8132.1794    88999.197    86108.172    76.538135    76.538135    76.538135    448366.99    -7961.523    15692.066 
   28200    8052.8721    8119.7365    84108.667    85770.382    76.607766    76.607766    76.607766    449591.81   -8007.9911    15534.466 
   28300     8116.364    8118.9106    82575.667    85088.197    76.617833    76.617833    76.617833    449769.07   -8086.6095    15672.073 
   28400    7989.3865    8098.6373    84514.232    85352.975    76.566319    76.566319    76.566319    448862.48   -7934.5397    15443.144 
   28500    8058.8934    8092.0347    82317.142    85093.522     76.57797     76.57797     76.57797    449067.42   -8064.7351     15426.09 
   28600    7965.6891    8072.2176    88429.401    85238.889    76.586692    76.586692    76.586692    449220.88   -7990.8957    15340.234 
   28700    8001.8412    8062.2615    83554.145    85174.426     76.52299     76.52299     76.52299    448100.88   -7961.4955    15420.594 
   28800     8041.669    8053.9575    84384.945    85186.837     76.54458     76.54458     76.54458    448480.27   -7987.9827    15528.545 
   28900    7980.9789    8036.5272    82045.775    84695.436    76.565558    76.565558    76.565558     448849.1   -8101.1434    15260.271 
   29000    7914.2463    8019.9927     84691.14    84562.031    76.463265    76.463265    76.463265    447052.49   -8089.0199    15178.353 
   29100    8064.9603    8018.6901    85790.351    84241.146    76.451479    76.451479    76.451479    446845.79   -8199.4877    15306.601 
   29200    7944.7853    8007.8814    83210.588    84151.339    76.350413    76.350413    76.350413       445076   -8197.1141    15116.954 
   29300     8000.171    7996.2621    86322.201    84525.992    76.378435    76.378435    76.378435    445566.23   -8242.8035    15106.588 
   29400    7967.9698    7994.1204    85806.511     84655.22    76.468365    76.468365    76.468365    447141.95   -8151.6564    15138.083 
   29500    7897.8428    7978.0154     80711.64     84494.67    76.525724    76.525724    76.525724    448148.91   -8193.1783    14949.383 
   29600     7921.766    7973.6231    83615.615    84013.291    76.539269    76.539269    76.539269    448386.92   -8238.0978    14840.981 
   29700    7876.9909     7961.138    85159.318    84173.808    76.485688    76.485688    76.485688     447445.9   -8178.6414    14914.714 
   29800     7893.715    7946.3426    83938.767    84129.191    76.403117    76.403117    76.403117    445998.33   -8062.6594     15040.04 
   29900    7858.6753    7934.1123    82138.218    84138.435     76.51061     76.51061     76.51061    447883.43   -8036.5248    15017.994 
   30000    7824.6147    7925.1491    82345.526    83903.874    76.486863    76.486863    76.486863    447466.52   -8140.2492    14814.169 
   30100    7867.6478    7905.4179     81179.21     83442.76    76.419487    76.419487    76.419487    446285.07   -8353.4989    14725.171 
   30200    7803.7991    7891.3192    82825.928    83404.294    76.411801    76.411801    76.411801    446150.42   -8116.7824    14742.744 
   30300      7783.95    7869.6971    84466.674    83218.741    76.348004    76.348004    76.348004    445033.88    -8202.465    14557.091 
   30400    7796.2468    7852.5248    83764.539    83014.544    76.419241    76.419241    76.419241    446280.75   -8178.1131    14582.908 
   30500    7735.4092    7836.2815    81105.423    83053.922    76.408113    76.408113    76.408113    446085.83   -8291.7854    14477.375 
   30600    7817.2432    7825.8292    85760.495     83268.41     76.36111     76.36111     76.36111     445263.1   -8207.5871    14636.002 
   30700    7729.0326    7811.0334    81787.435    82931.222    76.399073    76.399073    76.399073    445927.51    -8346.845    14317.959 
   30800    7739.8754    7795.6494    86048.183    83142.163    76.327574    76.327574    76.327574    444676.71   -8358.6951    14265.554 
   30900    7740.7319    7783.8551    84367.861    83365.128     76.36799     76.36799     76.36799    445383.45   -8402.3132    14246.332 
   31000    7690.9033    7770.4839     85017.71    83632.346     76.37488     76.37488     76.37488    445504.01   -8282.6667    14238.365 
   31100    7721.9115    7755.9103      86028.7    84117.295    76.328868    76.328868    76.328868    444699.32   -8366.1599    14154.509 
   31200    7693.9819    7744.9286    84101.295    84244.832    76.364967    76.364967    76.364967    445330.56   -8384.9241    14161.792 
   31300    7723.3562    7738.8692    82148.524    84013.017    76.336952    76.336952    76.336952    444840.63    -8591.765    14019.166 
   31400    7667.9809    7726.0426     81842.26    83820.789    76.345729    76.345729    76.345729    444994.08   -8553.4235    13974.596 
   31500    7686.1616    7721.1178    84002.636     84110.51    76.212031    76.212031    76.212031    442660.32   -8638.8583    13823.161 
   31600    7651.6891    7704.5624    83667.228    83901.183    76.191733    76.191733    76.191733    442306.74   -8597.4508    13866.104 
   31700    7602.4756    7691.9067    83467.275    84069.167    76.177002    76.177002    76.177002    442050.23   -8531.2581    13812.805 
   31800    7604.0914    7678.3283    85713.283    84035.677    76.221232    76.221232    76.221232    442820.68   -8534.1214    13746.523 
   31900    7599.9575    7664.2509    82659.783     83864.87    76.212091    76.212091    76.212091    442661.37    -8551.816    13769.909 
   32000    7558.3807    7650.9986    85921.301    83955.229    76.142459    76.142459    76.142459    441449.15   -8440.9429    13713.416 
   32100    7613.8438    7640.1919    83761.248    83728.483    76.231724    76.231724    76.231724    443003.57   -8465.4527    13814.472 
   32200    7647.2728    7635.5209    82766.667    83595.021    76.176687    76.176687    76.176687    442044.76     -8454.17    13878.552 
   32300      7623.26    7625.5113    82982.923     83678.46    76.117758    76.117758    76.117758    441019.68   -8578.6959    13686.589 
   32400    7536.6162    7612.3749    83895.573    83883.792    76.146602    76.146602    76.146602    441521.22   -8413.8036    13712.252 
   32500     7541.187    7597.8774    83749.393    83858.467    76.009434    76.009434    76.009434    439139.49   -8561.8642     13486.33 
   32600    7551.8374    7587.8922    86507.831    84142.528    76.120065    76.120065    76.120065    441059.78   -8518.8022    13546.693 
   32700    7457.4787    7573.3926    81773.854    83973.186    76.225872    76.225872    76.225872    442901.55   -8528.0543    13391.908 
   32800    7481.6085    7561.1443    84581.849    83860.042    76.120599    76.120599    76.120599    441069.06   -8680.6056    13283.186 
   32900    7503.9523    7551.5437    80043.376    83598.402    76.183122    76.183122    76.183122    442156.78   -8767.2494    13181.785 
   33000    7499.5969    7545.6654    82796.248    83285.896    76.066172    76.066172    76.066172    440123.63   -8782.8542    13200.201 
   33100    7510.0045    7535.2814    84903.102    83400.082    75.960091    75.960091    75.960091    438284.82   -8760.7732    13180.457 
   33200    7436.0686     7514.161    83154.548     83438.87    76.098062    76.098062    76.098062    440677.42   -8648.2215    13257.751 
   33300    7410.9977    7492.9348    84455.684    83586.146    76.062267    76.062267    76.062267    440055.85    -8658.508    13146.659 
   33400    7433.7875    7482.6519    79647.598    83161.348    76.038678    76.038678    76.038678    439646.56   -8712.6239    13129.407 
   33500    7365.6371    7465.0969     85623.82    83348.791    75.974171    75.974171    75.974171    438528.59   -8756.2028    12834.094 
   33600    7428.2201    7452.7352    82579.767    82955.985    75.982865    75.982865    75.982865    438679.16   -8802.1707    12955.954 
   33700     7387.368    7445.7241     85557.76    83334.375    75.930342    75.930342    75.930342    437770.06   -8723.0271    12947.662 
   33800    7414.4434    7439.0076    82636.959    83139.886    76.068213    76.068213    76.068213    440159.05   -8854.9827    12857.865 
   33900    7327.4883    7421.3612    83961.015     83531.65    76.068329    76.068329    76.068329    440161.07   -8691.3049    12855.095 
   34000    7352.1603    7406.6176    81631.049     83415.13    76.061601    76.061601    76.061601    440044.28   -8951.3973    12705.445 
   34100    7321.5009    7387.7672    79531.907    82878.011    75.942836    75.942836    75.942836     437986.2   -9011.5654    12592.862 
   34200    7328.6492    7377.0253    81513.617    82713.918    76.009702    76.009702    76.009702    439144.14   -8903.0858    12695.756 
   34300    7312.8633    7367.2118    83027.076    82571.057    76.028098    76.028098    76.028098    439463.06   -8859.4316    12581.811 
   34400    7330.3115    7356.8642    81469.571    82753.254    75.926647    75.926647    75.926647    437706.17   -8982.8489      12535.5 
   34500    7365.9992    7356.9004    82909.334    82481.805    75.904047    75.904047    75.904047    437315.43   -9013.4869     12620.07 
   34600    7307.2994    7344.8084    80980.251    82321.854    75.835357    75.835357    75.835357    436129.25    -9091.902    12413.539 
   34700     7250.185    7331.0901    80127.187    81778.797    75.953109    75.953109    75.953109    438163.97   -8977.1755    12430.141 
   34800    7190.9389    7308.7396    81207.289     81635.83    76.012614    76.012614    76.012614    439194.62   -8987.7332    12226.295 
   34900    7252.8387    7301.2746    84411.173    81680.845    75.897736    75.897736    75.897736    437206.35   -9103.1243    12169.913 
   35000    7251.9467    7291.2533    82533.624    81771.103    75.856928    75.856928    75.856928    436501.52     -9033.54    12124.282 
   35100    7208.4096    7279.9442    81297.172    81947.629    75.838584    75.838584    75.838584    436184.92   -8938.3202    12248.563 
   35200     7211.366    7268.2158    80305.128     81826.78    75.898304    75.898304    75.898304    437216.17   -9098.1344    12155.686 
   35300    7208.2048      7257.75    77726.742    81296.747     75.77422     75.77422     75.77422     435075.3   -9126.8063    12109.961 
   35400    7167.2766    7241.4465    80170.675    81166.857     75.87855     75.87855     75.87855    436874.87   -9148.8669    11953.589 
   35500     7152.729    7220.1195    79826.778    80858.602    75.953988    75.953988    75.953988    438179.18   -9025.4858    12057.095 
   35600    7157.1098    7205.1005    81786.165    80939.193    75.740512    75.740512    75.740512    434494.92   -9171.9438     11842.47 
   35700    7126.6779    7192.7498    79432.553     80869.73    75.744075    75.744075    75.744075    434556.25   -9253.7645    11687.148 
   35800    7179.2072    7191.5766    80479.831    80796.984    75.685302    75.685302    75.685302    433545.46   -9226.5244    11892.241 
   35900    7153.8616    7181.6789    81991.928     80555.06    75.789669    75.789669    75.789669    435341.46    -9281.967    11795.732 
   36000    7104.9906    7166.9833    76870.963    79988.794    75.760602    75.760602    75.760602    434840.76   -9258.3028    11725.997 
   36100    7149.3687    7161.0792    81197.935     79978.87    75.794422    75.794422    75.794422    435423.37   -9202.1125    11765.244 
   36200    7128.7089    7152.8135    82809.013    80229.258    75.617229    75.617229    75.617229     432376.7   -9294.0207    11651.033 
   36300    7096.6886    7141.6619    81037.776    80560.362    75.774826    75.774826    75.774826    435085.73   -9175.0888    11647.128 
   36400    7115.2571    7136.4599     82867.31    80830.025    75.558849    75.558849    75.558849    431376.01    -9308.245    11562.496 
   36500    7132.7782    7134.4649    81543.642    81001.712    75.660735    75.660735    75.660735    433123.42   -9323.7617    11591.508 
   36600    7018.9568    7120.6496    78575.963    80680.692    75.678599    75.678599    75.678599    433430.28   -9264.1632    11431.442 
   36700    7006.1754    7108.5993    80202.781    80757.714    75.736112    75.736112    75.736112    434419.21   -9346.0914    11335.141 
   36800    6969.9833    7087.6769     80306.99     80740.43    75.706591    75.706591    75.706591    433911.41   -9281.0542    11326.634 
   36900    6982.9186    7070.5826    75897.654    80131.003    75.746277    75.746277    75.746277    434594.15   -9401.3243    11201.121 
   37000    6970.1419    7057.0977    79806.759    80424.582    75.636976    75.636976    75.636976    432715.52   -9380.5919    11096.704 
   37100    6970.0104    7039.1619    81088.383    80413.627    75.689016    75.689016    75.689016    433609.28   -9307.1807    11188.116 
   37200    7036.7326    7029.9643    79160.902    80048.816     75.65837     75.65837     75.65837     433082.8   -9322.9138    11295.229 
   37300    7001.1651    7020.4119    78754.505    79820.489    75.628368    75.628368    75.628368     432567.8   -9407.4581     11153.01 
   37400    6968.8094    7005.7672    77354.135    79269.172    75.535488    75.535488    75.535488    430976.03   -9564.4168    10939.683 
   37500    6937.0422    6986.1936     81353.85    79250.192    75.557151    75.557151    75.557151    431346.94   -9558.9828    10937.147 
   37600    6895.6222    6973.8601    79403.608    79332.957    75.579402    75.579402    75.579402    431728.13   -9414.6115    10907.626 
   37700    6922.9688    6965.5395    76133.606    78926.039    75.594848    75.594848    75.594848    431992.88   -9469.9474     10922.67 
   37800    6884.9329    6957.0344     80204.14    78915.754    75.571837    75.571837    75.571837    431598.51   -9517.7689    10755.362 
   37900    6861.4869    6944.8912    79485.649    79274.554    75.468127    75.468127    75.468127    429824.06   -9584.9734    10664.298 
   38000    6848.2533    6932.7024    80329.365    79326.814    75.566186    75.566186    75.566186     431501.7   -9456.5694    10717.526 
   38100    6896.0753    6925.3089    82980.436     79516.02    75.510415    75.510415    75.510415    430547.01   -9510.7518    10771.945 
   38200    6858.5456    6907.4902    78207.203     79420.65     75.49342     75.49342     75.49342    430256.36   -9595.7155    10636.745 
   38300    6912.6438     6898.638    78467.701    79391.969     75.39628     75.39628     75.39628    428597.62   -9717.8789    10558.071 
   38400    6872.6756    6889.0247    80762.033    79732.759    75.380507    75.380507    75.380507    428328.69   -9662.9808    10558.562 
   38500     6831.159    6878.4363    77879.459     79385.32    75.437512    75.437512    75.437512    429301.17   -9757.7857    10414.088 
   38600    6817.7223    6870.6463    80952.362    79540.195    75.377892    75.377892    75.377892     428284.1   -9695.9188    10363.786 
   38700    6744.1097    6852.7604    78020.963    79728.931    75.509575    75.509575    75.509575    430532.63   -9800.7909    10169.011 
   38800    6814.0576    6845.6729    79158.834    79624.401    75.243477    75.243477    75.243477    425997.03   -9862.8331    10207.083 
[...]
  367400    299.56966    300.31559   -2131.5743   -1941.5553    83.928701    83.928701    83.928701    591196.03   -24595.501   -23587.793 
  367500    302.50229    300.51709   -1832.7992   -1930.0309    83.960444    83.960444    83.960444    591867.08   -24595.531   -23576.896 
  367600     299.5406    300.47868   -2120.1362    -1951.797    83.970215    83.970215    83.970215    592073.73    -24598.84   -23587.665 
  367700      298.688    300.22873   -1692.1568   -1917.3383    83.905161    83.905161    83.905161    590698.71   -24598.669   -23593.748 
  367800    300.40545    300.43449   -2136.5324   -1931.7287    83.928842    83.928842    83.928842       591199   -24596.165   -23583.515 
  367900    300.70183    300.36089   -1967.6236   -1941.7587    83.888864    83.888864    83.888864    590354.58   -24598.653   -23587.063 
  368000    298.57256    299.95581   -1923.0049   -1948.1887    83.853268    83.853268    83.853268    589603.41    -24595.24   -23586.172 
  368100     301.8934    300.15358   -1931.5863   -1948.2867    83.870764    83.870764    83.870764    589972.53   -24601.384   -23592.328 
  368200    300.26404    300.11581   -1834.5608   -1942.8091    83.843241    83.843241    83.843241    589391.92   -24599.574   -23590.143 
  368300    301.47307    300.36109   -2107.9529   -1967.7927    83.932929    83.932929    83.932929    591285.37   -24596.161   -23585.202 
  368400    301.35143    300.53927   -1920.2332   -1946.6586     83.97331     83.97331     83.97331     592139.2   -24594.048   -23585.199 
  368500    299.02665     300.1917    -1906.277   -1954.0064    83.935144    83.935144    83.935144    591332.19   -24589.664   -23583.183 
  368600    301.49932    300.38757   -2082.2733   -1950.2201    83.910939    83.910939    83.910939    590820.76    -24600.64   -23587.407 
  368700    296.37288    300.15606   -2061.7275   -1987.1772    83.936752    83.936752    83.936752    591366.18   -24596.965   -23604.264 
  368800    298.15156    299.93067   -1917.6764   -1965.2916    83.975196    83.975196    83.975196     592179.1   -24592.988   -23593.765 
  368900    297.12686    299.57318   -1987.9225   -1967.3215     83.90322     83.90322     83.90322    590657.71   -24591.466   -23591.637 
  369000    297.74067    299.48999   -2164.3841   -1991.4594    83.901632    83.901632    83.901632    590624.18   -24596.769   -23595.369 
  369100    300.63355      299.364    -1734.679   -1971.7687    83.843398    83.843398    83.843398    589395.22   -24592.127   -23584.234 
  369200    301.28338    299.46594   -1909.6644    -1979.279    83.827676    83.827676    83.827676    589063.71   -24603.175   -23589.703 
  369300    300.47402    299.36603   -1875.1372   -1955.9975    83.836284    83.836284    83.836284    589245.21   -24600.078    -23589.76 
  369400    300.83055    299.31394   -2126.1361   -1976.5877    83.860623    83.860623    83.860623    589758.57   -24598.391   -23588.537 
  369500     301.5239    299.56367   -1879.9762   -1973.9577    83.872643    83.872643    83.872643    590012.19   -24596.603   -23583.439 
  369600    301.41316    299.55505   -1866.3532   -1952.3657    83.844512    83.844512    83.844512    589418.71   -24601.936   -23589.286 
  369700    300.62691    299.98045   -1823.2259   -1928.5155    83.836112    83.836112    83.836112    589241.59   -24601.455   -23594.417 
  369800    300.44099     300.2094   -1756.3636   -1912.3842    83.878078    83.878078    83.878078     590126.9   -24602.584   -23600.223 
  369900    300.99247    300.59596   -1816.4544   -1895.2374    83.916388    83.916388    83.916388    590935.86   -24596.932   -23592.397 
  370000    300.75927    300.89782   -2026.5583   -1881.4548    83.925725    83.925725    83.925725    591133.14   -24598.632   -23587.415 
  370100    300.08106    300.84257   -2038.7542   -1911.8623    83.930301    83.930301    83.930301    591229.83   -24593.602   -23585.452 
  370200    300.28995    300.74323   -2183.3304   -1939.2289    83.898246    83.898246    83.898246    590552.69   -24600.712   -23592.643 
  370300    299.73343    300.66917   -2011.8541   -1952.9006     83.81622     83.81622     83.81622    588822.24   -24600.511   -23593.605 
  370400    301.12961    300.69907   -1944.1504   -1934.7021     83.73624     83.73624     83.73624    587138.24   -24596.691   -23584.404 
  370500    300.24509    300.57119   -1960.6464   -1942.7691    83.786074    83.786074    83.786074    588187.14   -24595.336   -23581.069 
  370600    298.47684    300.27756   -2107.1265   -1966.8464    83.837509    83.837509    83.837509    589271.04   -24592.282   -23590.574 
  370700    299.63536    300.17841   -1698.3421    -1954.358    83.862832    83.862832    83.862832    589805.16   -24590.009   -23582.927 
  370800     301.1155    300.24586   -1873.6953   -1966.0912    83.862112    83.862112    83.862112    589789.98   -24598.394   -23587.306 
  370900    300.75121    300.22173   -1930.5975   -1977.5055    83.835792    83.835792    83.835792    589234.84   -24599.195   -23589.119 
  371000    299.04734    300.05054   -2108.6224   -1985.7119      83.8163      83.8163      83.8163    588823.93   -24598.779   -23589.866 
  371100    298.79338    299.92177   -2122.6077   -1994.0973    83.830186    83.830186    83.830186    589116.63   -24596.838   -23590.618 
  371200    300.48512    299.94129   -2082.5379    -1984.018    83.812848    83.812848    83.812848    588751.19   -24593.751   -23582.937 
  371300    297.48249    299.71619     -1880.57   -1970.8896    83.868773    83.868773    83.868773    589930.52   -24591.592   -23587.147 
  371400    299.65846    299.56908   -2135.5925   -1990.0338    83.961461    83.961461    83.961461    591888.58   -24592.475   -23583.734 
  371500    300.53378    299.59795   -1997.4553   -1993.7147    83.919967    83.919967    83.919967    591011.49    -24595.61   -23585.829 
  371600    299.54825    299.70509   -1873.9459   -1970.3967    83.880031    83.880031    83.880031    590168.12   -24595.822   -23586.836 
  371700    298.57001    299.59856    -2008.173   -2001.3798    83.883055    83.883055    83.883055    590231.95   -24602.515   -23595.867 
  371800    298.47355    299.33436   -2123.1324   -2026.3235    83.930057    83.930057    83.930057    591224.68   -24595.635   -23589.351 
  371900    300.54492    299.31373   -1738.0812   -2007.0718     83.84043     83.84043     83.84043    589332.64   -24601.706   -23590.894 
  372000    302.19699     299.6287   -2114.5224   -2007.6618    83.879913    83.879913    83.879913    590165.63   -24598.305   -23585.908 
  372100    303.50404    300.09976   -1831.1411   -1978.5152    83.872672    83.872672    83.872672    590012.81   -24591.725   -23578.869 
  372200    300.60329    300.11158   -1948.3379   -1965.0952    83.884115    83.884115    83.884115    590254.33   -24595.992   -23591.777 
  372300    298.91552    300.25488   -1783.7106   -1955.4092    83.936187    83.936187    83.936187    591354.22   -24600.067   -23597.538 
  372400    302.18634    300.50767   -1922.7452   -1934.1245    83.939467    83.939467    83.939467    591423.56   -24596.603   -23585.404 
  372500    300.48148    300.50244   -2131.5694   -1947.5359    83.898789    83.898789    83.898789    590564.14   -24598.637   -23589.717 
  372600    301.29229    300.67684   -2071.2373   -1967.2651    83.937309    83.937309    83.937309    591377.94   -24602.372   -23590.447 
  372700    301.68911    300.98875   -2001.2235   -1966.5701    83.901558    83.901558    83.901558    590622.62   -24600.949   -23591.366 
  372800     299.6373    301.10513   -2025.5979   -1956.8166    83.894992    83.894992    83.894992    590483.96   -24596.837   -23586.966 
  372900    301.92819    301.24345    -1953.585    -1978.367    83.938218    83.938218    83.938218    591397.16   -24592.125   -23579.565 
  373000    299.82508    301.00626   -1972.0762   -1964.1224    83.945691    83.945691    83.945691    591555.13   -24598.636    -23591.78 
  373100    299.68917    300.62478   -2030.3462   -1984.0429    83.871368    83.871368    83.871368    589985.28   -24597.499    -23588.33 
  373200    304.08013    300.97246   -2022.9476   -1991.5039    83.874547    83.874547    83.874547    590052.36   -24600.139   -23583.548 
  373300    300.16135    301.09704   -1909.8251   -2004.1153    83.873395    83.873395    83.873395    590028.07    -24599.27   -23586.625 
  373400    300.25417    300.90383   -2276.7765   -2039.5185    83.906814    83.906814    83.906814    590733.64   -24603.751   -23594.955 
  373500     298.7705    300.73273    -2063.595    -2032.721     83.90781     83.90781     83.90781    590754.66   -24603.237   -23596.787 
  373600    298.58688    300.46219   -1770.6833   -2002.6656    83.868379    83.868379    83.868379    589922.21   -24599.525    -23595.34 
  373700    298.71729    300.16501    -2040.928   -2006.6361    83.899296    83.899296    83.899296    590574.85   -24604.992   -23593.839 
  373800    298.95634    300.09691    -1929.862   -1997.0625    83.973733    83.973733    83.973733    592148.16   -24597.226   -23589.401 
  373900    301.17227    300.02132   -1820.0074   -1983.7047    83.934475    83.934475    83.934475    591318.05   -24601.442    -23587.58 
  374000    300.96681    300.13549    -2008.756   -1987.3727    83.858254    83.858254    83.858254    589708.59   -24601.192   -23589.622 
  374100    299.41534    300.10811   -1992.9981   -1983.6379    83.853275    83.853275    83.853275    589603.56   -24600.053   -23593.586 
  374200    298.15342    299.51544    -1903.011   -1971.6442     83.83103     83.83103     83.83103    589134.44   -24596.617   -23584.293 
  374300     299.2993    299.42923   -1762.2962   -1956.8914    83.815585    83.815585    83.815585    588808.87   -24598.574   -23587.241 
  374400    301.01865    299.50568   -1934.9139   -1922.7051    83.836407    83.836407    83.836407    589247.81   -24599.739    -23589.06 
  374500    299.53001    299.58163   -2065.9194   -1922.9375    83.845308    83.845308    83.845308    589435.51   -24596.098   -23594.585 
  374600    299.02959     299.6259   -2033.1333   -1949.1825    83.889564    83.889564    83.889564    590369.36   -24605.548   -23597.689 
  374700    302.10282    299.96445   -2108.2508   -1955.9148    83.895682    83.895682    83.895682    590498.54    -24598.31   -23580.336 
  374800     299.1426    299.98308   -1949.9254   -1957.9212    83.857335    83.857335    83.857335    589689.19   -24598.611   -23593.127 
  374900    298.32716    299.69857   -2102.3981   -1986.1602    83.880895    83.880895    83.880895    590186.37   -24596.285   -23588.908 
  375000    301.02386    299.70427   -1959.7705   -1981.2617    83.915044    83.915044    83.915044    590907.47   -24597.716   -23584.152 
  375100    301.39926    299.90267   -2165.4389   -1998.5058    83.953523    83.953523    83.953523    591720.73   -24596.626   -23592.477 
  375200    299.23287    300.01061   -1688.9079   -1977.0955    83.947687    83.947687    83.947687    591597.33   -24593.077   -23588.299 
  375300     297.7566    299.85634   -1775.7685   -1978.4427    83.963846    83.963846    83.963846    591939.03   -24590.433   -23590.931 
  375400    301.56632    299.91111   -2016.7069    -1986.622    84.009224    84.009224    84.009224    592899.27   -24597.306   -23584.547 
  375500    300.52302    300.01041    -1772.521   -1957.2821    83.998918    83.998918    83.998918     592681.1   -24594.455   -23585.331 
  375600    300.64728    300.17218   -1785.2636   -1932.4952    83.957944    83.957944    83.957944     591814.2     -24599.6   -23591.022 
  375700    301.22128    300.08403   -1983.5292    -1920.023    83.950515    83.950515    83.950515    591657.12   -24596.525    -23589.53 
  375800    300.95383    300.26515   -1836.2279   -1908.6533    83.978002    83.978002    83.978002    592238.47   -24601.064   -23591.389 
  375900    298.84907    300.31734   -2033.2517   -1901.7386    84.004827    84.004827    84.004827    592806.17   -24599.369   -23594.422 
  376000    297.96932    300.01189   -1907.5467   -1896.5162    84.019439    84.019439    84.019439    593115.57   -24592.425   -23588.082 
  376100    299.26801    299.79876    -1949.105   -1874.8829    84.024172    84.024172    84.024172    593215.82   -24601.379   -23594.283 
  376200    301.49288    300.02476   -2162.3685   -1922.2289    84.000906    84.000906    84.000906    592723.18    -24599.63   -23586.974 
  376300    300.30101     300.2792   -2051.8009   -1949.8322     83.97746     83.97746     83.97746    592226.99   -24599.868   -23592.738 
  376400    300.59602    300.18217   -1755.0195   -1923.6634    83.999209    83.999209    83.999209    592687.25   -24598.243   -23592.585 
  376500    301.38765    300.26864   -1834.8909   -1929.9004    84.100316    84.100316    84.100316    594830.02   -24597.893   -23588.995 
  376600    297.52487    299.95639   -1908.8634   -1942.2604    84.096622    84.096622    84.096622    594751.66   -24594.371   -23586.303 
  376700    301.21236     299.9555   -2151.2903   -1959.0365    84.149879    84.149879    84.149879    595882.29   -24597.766   -23586.319 
  376800     300.3466    299.89478   -2030.2794   -1978.4416    84.103926    84.103926    84.103926    594906.62   -24592.994   -23585.706 
  376900    303.06375    300.31625    -2160.285    -1991.145    84.095756    84.095756    84.095756    594733.28   -24603.742   -23591.553 
  377000    299.98942    300.51826   -1805.2993   -1980.9202    84.075302    84.075302    84.075302    594299.41   -24588.857    -23581.87 
  377100    301.79866    300.77132   -1941.3269   -1980.1424    84.083821    84.083821    84.083821    594480.09   -24594.015    -23586.27 
  377200    299.26711    300.54874   -1962.0264   -1960.1082    84.105091    84.105091    84.105091    594931.35   -24594.322   -23585.742 
  377300     300.0611    300.52475   -1947.9145   -1949.7196    84.066819    84.066819    84.066819    594119.54    -24591.74    -23580.46 
  377400    297.45425    300.21058   -1941.9287   -1968.4105    84.109184    84.109184    84.109184     595018.2   -24592.645   -23588.605 
  377500    300.02292     300.0741   -1735.9017   -1958.5116    84.149964    84.149964    84.149964    595884.11   -24592.617   -23584.488 
  377600    299.14937    300.23655   -2052.0346   -1972.8287     84.10424     84.10424     84.10424    594913.28   -24593.737    -23589.53 
  377700    299.95995    300.11131   -2077.0083   -1965.4005    84.080225    84.080225    84.080225    594403.83   -24591.396     -23583.3 
  377800    300.01002    300.07766   -2137.4285   -1976.1154    84.060757    84.060757    84.060757    593991.04   -24597.819   -23590.861 
  377900     299.6618    299.73746   -2080.1244   -1968.0993    84.050567    84.050567    84.050567    593775.04    -24601.06   -23590.363 
  378000    300.73246    299.81177   -2056.5648   -1993.2259    84.068278    84.068278    84.068278    594150.48   -24593.911   -23582.797 
  378100    299.45726    299.57763    -2089.614   -2008.0546    84.061373    84.061373    84.061373     594004.1   -24588.907   -23585.589 
  378200    301.52597    299.80351   -2026.5219   -2014.5041     84.01679     84.01679     84.01679    593059.49    -24603.44   -23591.213 
  378300    302.71671    300.06907   -1904.3955   -2010.1522    84.071004    84.071004    84.071004    594208.28   -24603.313   -23591.457 
  378400    300.08224    300.33187   -1849.7194   -2000.9313    84.119298    84.119298    84.119298    595232.88   -24593.041   -23584.558 
  378500    297.51227    300.08081   -1959.8279   -2023.3239    84.085801    84.085801    84.085801     594522.1   -24596.619   -23595.525 
  378600    301.16289    300.28216   -1974.4384   -2015.5643    84.122891    84.122891    84.122891    595309.17   -24598.723   -23588.295 
  378700    300.24577    300.31074   -1914.9702   -1999.3605    84.133806    84.133806    84.133806    595540.91   -24597.519   -23587.427 
  378800    301.33863     300.4436   -2133.2716   -1998.9448        84.07        84.07        84.07       594187   -24595.096   -23587.843 
  378900    301.06351    300.58377   -1897.8243   -1980.7148    84.058819    84.058819    84.058819    593949.95   -24600.567   -23589.421 
  379000    301.04972     300.6155   -2045.9698   -1979.6553    84.099934    84.099934    84.099934    594821.92   -24597.881   -23585.643 
  379100    298.24275    300.49405   -2084.3551   -1979.1294    84.123681    84.123681    84.123681    595325.95   -24594.242   -23585.649 
  379200    300.29663    300.37111   -1794.1414   -1955.8914    84.131797    84.131797    84.131797    595498.26   -24591.461   -23584.028 
  379300    299.46017    300.04546   -1934.4169   -1958.8935    84.140191    84.140191    84.140191    595676.52   -24597.901   -23591.952 
  379400    301.25865     300.1631   -2032.0623   -1977.1278    84.173508    84.173508    84.173508     596384.4   -24593.665   -23587.013 
  379500    299.55469    300.36734   -1976.9817   -1978.8432    84.081323    84.081323    84.081323     594427.1   -24600.787   -23593.468 
  379600    300.08161    300.25921   -1740.0667    -1955.406     84.07728     84.07728     84.07728    594341.37   -24599.792   -23589.696 
  379700    296.66254    299.90089   -2066.2956   -1970.5385    84.055859    84.055859    84.055859    593887.22   -24598.624   -23599.067 
  379800    298.96546    299.66357   -1720.9138   -1929.3028    84.067124    84.067124    84.067124    594126.02   -24591.641   -23589.671 
  379900    299.81196    299.53842   -1985.6827   -1938.0886    84.094052    84.094052    84.094052    594697.13   -24606.067   -23593.964 
  380000    299.62258     299.3957   -2079.8402   -1941.4756    84.079456    84.079456    84.079456    594387.52   -24600.444   -23593.314 
  380100    300.05189    299.57662   -1850.2961   -1918.0697    84.084834    84.084834    84.084834    594501.59    -24598.47   -23591.821 
  380200    303.23727    299.87068   -2155.2102   -1954.1766    84.110523    84.110523    84.110523    595046.64   -24602.403   -23588.743 
  380300    298.89882    299.81455   -1839.9403    -1944.729    84.077272    84.077272    84.077272    594341.19   -24601.842   -23595.544 
  380335    299.38986    299.62767   -2132.1107   -1954.7338    84.127567    84.127567    84.127567    595408.44    -24600.24   -23594.776 
Loop time of 272.607 on 48 procs for 20000 steps with 17600 atoms

Pair  time (%) = 145.749 (53.4649)
Bond  time (%) = 2.12486 (0.779458)
Neigh time (%) = 0.729059 (0.26744)
Comm  time (%) = 99.0756 (36.3438)
Outpt time (%) = 0.566066 (0.207649)
Other time (%) = 24.3624 (8.93682)

Nlocal:    366.667 ave 440 max 280 min
Histogram: 1 0 6 4 11 9 4 7 3 3
Nghost:    1168 ave 1288 max 1019 min
Histogram: 1 3 5 3 8 7 7 4 6 4
Neighs:    15933.5 ave 20964 max 11025 min
Histogram: 1 5 3 11 6 7 3 7 2 3

Total # of neighbors = 764808
Ave neighs/atom = 43.455
Ave special neighs/atom = 2.04545
Neighbor list builds = 314
Dangerous builds = 0

#########################################################################
clear
next a
next p
next q
next r
next s
next t
next v
jump in.EtOCSMethyl# EtOCSMethyl -- network connectivity scan -- with bulk modulus simulation

# trial parameter
variable a index 1.1 1.2 1.3 2.1 2.2 2.3 3.1 3.2 3.3 
# EtOCSMethyl precursor start moleculeID parameter
variable p index 1 1 1 1 1 1 1 1 1 
# EtOCSMethyl precursor end moleculeID parameter
variable q index 2000 2000 2000 2000 2000 2000 2000 2000 2000 
# free O start atomID parameter
variable r index 10001 10001 10001 10001 10001 10001 10001 10001 10001 
# free O end atomID parameter
variable s index 16800 16800 16800 17600 17600 17600 18400 18400 18400 
# porogen start moleculeID parameter
variable t index 2001 2001 2001 2001 2001 2001 2001 2001 2001 
# porogen end moleculeID parameter
variable v index 2000 2000 2000 2000 2000 2000 2000 2000 2000 

log log_$a.lammps
log log_2.2.lammps
