
#########################################################################
dimension 3
atom_style full

# bonded potentials
bond_style harmonic
angle_style harmonic
dihedral_style hybrid opls class2

boundary p p p
units metal
neighbor 2 bin
neigh_modify check yes

timestep 0.001

read_data data.EtOCSMethyl_2000_$a
read_data data.EtOCSMethyl_2000_1.2
  1 = max bonds/atom
  1 = max angles/atom
  1 = max dihedrals/atom
  orthogonal box = (-4 -4 -4) to (136 136 136)
  3 by 4 by 4 processor grid
  16800 atoms
  8000 bonds
  6000 angles
  4000 dihedrals
  2 = max # of 1-2 neighbors
  2 = max # of 1-3 neighbors
  2 = max # of 1-4 neighbors
  4 = max # of special neighbors

#########################################################################
# number of EtOCSMethyl precursors (referenced by moleculeID)
group precursors molecule <> $p $q
group precursors molecule <> 1 $q
group precursors molecule <> 1 2000
10000 atoms in group precursors

# number of free O atoms (referenced by atomID)
group freeO id <> $r $s
group freeO id <> 10001 $s
group freeO id <> 10001 16800
6800 atoms in group freeO

# number of porogen molecules (referenced by moleculeID)
group porogen molecule <> $t $v
group porogen molecule <> 2001 $v
group porogen molecule <> 2001 2000
0 atoms in group porogen

group active union precursors freeO porogen
16800 atoms in group active
group activematrix union precursors freeO
16800 atoms in group activematrix
group inactive subtract all active
0 atoms in group inactive
delete_atoms group inactive
Deleted 0 atoms, new total = 16800

#########################################################################
#soft potential to push the atoms apart
pair_style soft 3
pair_coeff	* * 0 500 3

thermo_style custom step temp tave press pave lx ly lz vol epair etotal

fix 1		active nvt 6000 6000 0.0100 drag 2.00
thermo		1000
run		20000
Memory usage per processor = 2.39633 Mbytes
Step Temp T_ave Press P_ave Lx Ly Lz Volume E_pair TotEng 
       0            0            0   -2.8414386   -2.8414386          140          140          140      2744000            0    11.848978 
    1000    5978.8304    2989.4152    4506.9654     2252.062          140          140          140      2744000    165.54491    15448.058 
    2000    6008.3978    3995.7428    4129.2159    2877.7799          140          140          140      2744000    111.38098    16376.147 
    3000     6001.148    4497.0941    3869.4281     3125.692          140          140          140      2744000    93.794708    16851.432 
    4000    6011.0097    4799.8772    3733.4881    3247.2512          140          140          140      2744000     64.61114    17034.542 
    5000    5970.4792    4994.9775    3787.2744    3337.2551          140          140          140      2744000    67.202941    17087.601 
    6000    5993.0615     5137.561    3760.2933    3397.6891          140          140          140      2744000    57.692228    17126.934 
    7000    5980.8831    5242.9762    3764.1587    3443.4978          140          140          140      2744000    51.142838    17173.443 
    8000    6002.0409    5327.3167    3595.8895    3460.4302          140          140          140      2744000    49.283858    17174.544 
    9000    5985.0118    5393.0862    3581.5052    3472.5377          140          140          140      2744000    47.820524    17127.679 
   10000    6018.8695    5994.9732    3820.1108    3854.8329          140          140          140      2744000    48.925071    17076.169 
   11000    6009.2186     5998.012    3420.6064     3746.197          140          140          140      2744000    39.813337    17088.079 
   12000    5994.1534    5996.5876    3797.7486    3713.0503          140          140          140      2744000    49.555754    17032.182 
   13000    6000.3076    5996.5035    3626.8369    3688.7912          140          140          140      2744000    32.958324    17078.341 
   14000     5988.716    5994.2742    3806.8872    3696.1311          140          140          140      2744000     35.48096    17049.055 
   15000    6004.5914    5997.6854    3836.2955    3701.0332          140          140          140      2744000    42.795655    17080.972 
   16000    6002.0322    5998.5824    3637.7109     3688.775          140          140          140      2744000    33.547249    17084.134 
   17000    6016.7384     6002.168     3664.405    3678.7996          140          140          140      2744000    37.374441    17115.968 
   18000    6018.1003    6003.7739    3775.6898    3696.7796          140          140          140      2744000     30.67956     17092.02 
   19000    5981.3769    6003.4104    3431.5248    3681.7816          140          140          140      2744000    21.921655    17104.362 
   20000    6008.1771    6002.3412    3384.9642    3638.2669          140          140          140      2744000    21.956217    17134.389 
Loop time of 40.3391 on 48 procs for 20000 steps with 16800 atoms

Pair  time (%) = 0.315428 (0.78194)
Bond  time (%) = 2.02211 (5.01278)
Neigh time (%) = 0.579524 (1.43663)
Comm  time (%) = 29.1712 (72.3151)
Outpt time (%) = 0.0283087 (0.0701768)
Other time (%) = 8.22249 (20.3834)

Nlocal:    350 ave 419 max 298 min
Histogram: 4 3 6 9 10 7 3 4 0 2
Nghost:    351.312 ave 411 max 295 min
Histogram: 2 5 3 6 10 7 7 2 4 2
Neighs:    351.812 ave 506 max 248 min
Histogram: 3 4 8 10 9 8 2 3 0 1

Total # of neighbors = 16887
Ave neighs/atom = 1.00518
Ave special neighs/atom = 2.14286
Neighbor list builds = 1731
Dangerous builds = 257

thermo		1
minimize		1e-4 10000 10000
Memory usage per processor = 3.1006 Mbytes
Step Temp T_ave Press P_ave Lx Ly Lz Volume E_pair TotEng 
   20000    6008.1771    6002.3412    3384.9642    3638.2669          140          140          140      2744000    21.956217    17134.389 
   20001    6008.1771     6002.237    3373.5581    3633.5621          140          140          140      2744000   0.27784275    16173.883 
   20002    6008.1771    6003.6394    4491.3775     3702.925          140          140          140      2744000    1.1727014    15027.694 
   20003    6008.1771    6004.4263    4787.5707    3818.9984          140          140          140      2744000   0.54917925    14729.691 
   20004    6008.1771    6006.3725    4902.4816    3928.5578          140          140          140      2744000  0.097376419    14611.625 
   20005    6008.1771     6006.731    5178.7401    4062.8023          140          140          140      2744000    1.2579758    14356.325 
   20006    6008.1771    6007.3455     5125.826    4211.6138          140          140          140      2744000 0.0098101949     14300.91 
   20007    6008.1771    6006.4894    5247.8606    4369.9593          140          140          140      2744000    2.9782302    14074.303 
   20008    6008.1771    6005.4971    5127.0458    4505.0949          140          140          140      2744000 0.0035374765    14042.422 
   20009    6008.1771    6008.1771    5395.5547    4701.4979          140          140          140      2744000    4.9858872    13886.516 
   20010    6008.1771    6008.1771     5217.459    4884.7474          140          140          140      2744000 0.0097383574    13852.767 
   20011    6008.1771    6008.1771    5371.1659    5084.5082          140          140          140      2744000     5.678323    13756.725 
   20012    6008.1771    6008.1771     5187.495    5154.1199          140          140          140      2744000  0.059862157    13716.162 
   20013    6008.1771    6008.1771    5262.0911     5201.572          140          140          140      2744000   0.57797448    13674.503 
   20014    6008.1771    6008.1771    5226.8658    5234.0104          140          140          140      2744000 0.0048524539    13662.197 
   20015    6008.1771    6008.1771    5337.6584    5249.9022          140          140          140      2744000    2.2228605    13600.824 
   20016    6008.1771    6008.1771    5182.9376    5255.6134          140          140          140      2744000   0.04770198    13582.644 
   20017    6008.1771    6008.1771    5214.0566     5252.233          140          140          140      2744000   0.11650385     13554.36 
   20018    6008.1771    6008.1771    5206.9342    5260.2218          140          140          140      2744000 0.0075024339    13543.085 
   20019    6008.1771    6008.1771    5377.0229    5258.3687          140          140          140      2744000    3.9563269    13488.713 
   20020    6008.1771    6008.1771    5184.9048    5255.1133          140          140          140      2744000   0.27121302    13466.678 
   20021    6008.1771    6008.1771    5155.5204    5233.5487          140          140          140      2744000 0.0023622201    13455.437 
   20022    6008.1771    6008.1771    5209.1722    5235.7164          140          140          140      2744000   0.17539589    13440.032 
   20023    6008.1771    6008.1771    5195.6944    5229.0767          140          140          140      2744000  0.025603815    13432.644 
   20024    6008.1771    6008.1771    5175.2187     5223.912          140          140          140      2744000  0.057545351    13417.552 
   20025    6008.1771    6008.1771    5163.4554    5206.4917          140          140          140      2744000   0.11270126     13401.71 
   20026    6008.1771    6008.1771    5179.6445    5206.1624          140          140          140      2744000   0.13990988    13385.797 
   20027    6008.1771    6008.1771    5159.1624     5200.673          140          140          140      2744000 0.0080033912    13378.944 
   20028    6008.1771    6008.1771    5149.3241     5194.912          140          140          140      2744000  0.033675302    13366.823 
   20029    6008.1771    6008.1771    5152.8046    5172.4902          140          140          140      2744000     0.137767    13356.992 
   20030    6008.1771    6008.1771    5137.4959    5167.7493          140          140          140      2744000 0.0059128211    13345.745 
   20031    6008.1771    6008.1771    5151.1633    5167.3135          140          140          140      2744000   0.24616145    13328.715 
   20032    6008.1771    6008.1771    5137.2841    5160.1247          140          140          140      2744000   0.12089316    13318.116 
   20033    6008.1771    6008.1771    5124.5508    5153.0104          140          140          140      2744000  0.021872178    13308.535 
   20034    6008.1771    6008.1771    5118.5904    5147.3476          140          140          140      2744000 0.0017834668    13303.571 
   20035    6008.1771    6008.1771    5170.3091    5148.0329          140          140          140      2744000   0.71714626    13287.672 
   20036    6008.1771    6008.1771    5119.6724    5142.0357          140          140          140      2744000   0.12374169    13277.334 
   20037    6008.1771    6008.1771    5106.5813    5136.7776          140          140          140      2744000  0.027177499    13268.606 
   20038    6008.1771    6008.1771    5122.6131    5134.1065          140          140          140      2744000  0.084009403    13261.516 
   20039    6008.1771    6008.1771    5117.3531    5130.5614          140          140          140      2744000  0.056229021    13255.925 
   20040    6008.1771    6008.1771    5106.7822      5127.49          140          140          140      2744000  0.018725767    13251.533 
   20041    6008.1771    6008.1771     5100.724     5122.446          140          140          140      2744000  0.004272148    13249.475 
   20042    6008.1771    6008.1771    5100.6145    5118.7791          140          140          140      2744000  0.013286131    13245.546 
   20043    6008.1771    6008.1771    5098.0981    5116.1338          140          140          140      2744000 0.0022163655    13243.719 
   20044    6008.1771    6008.1771      5114.54    5115.7288          140          140          140      2744000  0.096912572    13237.226 
   20045    6008.1771    6008.1771     5097.369    5108.4348          140          140          140      2744000 0.0068825907     13234.36 
   20046    6008.1771    6008.1771    5095.7019    5106.0377          140          140          140      2744000 0.0038119211    13232.097 
   20047    6008.1771    6008.1771    5096.4054    5105.0201          140          140          140      2744000 0.0032526109     13229.04 
   20048    6008.1771    6008.1771    5098.6498    5102.6238          140          140          140      2744000  0.014920718    13225.437 
   20049    6008.1771    6008.1771    5123.7778    5103.2663          140          140          140      2744000    0.2155651    13219.609 
   20050    6008.1771    6008.1771    5105.7587    5103.1639          140          140          140      2744000  0.072005615    13216.187 
   20051    6008.1771    6008.1771    5097.7175    5102.8633          140          140          140      2744000  0.034352514    13213.685 
   20052    6008.1771    6008.1771    5095.9816       5102.4          140          140          140      2744000   0.01972799    13211.341 
   20053    6008.1771    6008.1771    5100.8529    5102.6755          140          140          140      2744000  0.046138531    13207.955 
   20054    6008.1771    6008.1771    5093.4557     5100.567          140          140          140      2744000 0.0070873728    13206.059 
   20055    6008.1771    6008.1771    5090.6015    5099.8903          140          140          140      2744000 0.0042900603     13204.65 
   20056    6008.1771    6008.1771    5088.9433    5099.2144          140          140          140      2744000 0.00093711381    13203.243 
   20057    6008.1771    6008.1771    5126.6677    5102.2407          140          140          140      2744000   0.24458943    13198.316 
   20058    6008.1771    6008.1771    5104.9766    5102.8734          140          140          140      2744000  0.090780792    13195.187 
   20059    6008.1771    6008.1771    5093.9111    5099.8867          140          140          140      2744000  0.028622625    13193.169 
   20060    6008.1771    6008.1771    5092.5288    5098.5637          140          140          140      2744000  0.022150729    13191.445 
   20061    6008.1771    6008.1771    5095.8742    5098.3794          140          140          140      2744000  0.034811177    13189.766 
   20062    6008.1771    6008.1771    5087.3173    5097.5129          140          140          140      2744000 0.0010491429    13188.368 
   20063    6008.1771    6008.1771    5215.1562    5108.9433          140          140          140      2744000    1.6028043    13184.607 
   20064    6008.1771    6008.1771    5261.9793    5125.7956          140          140          140      2744000    2.0875645    13181.726 
   20065    6008.1771    6008.1771    5151.3305    5131.8685          140          140          140      2744000    1.2099502    13177.696 
   20066    6008.1771    6008.1771    5142.1197    5137.1861          140          140          140      2744000    1.8918441    13172.721 
   20067    6008.1771    6008.1771    5099.6035    5134.4797          140          140          140      2744000   0.83936992    13167.645 
   20068    6008.1771    6008.1771    5067.3834    5130.7204          140          140          140      2744000    0.3633408    13165.186 
   20069    6008.1771    6008.1771    5050.1004    5126.3393          140          140          140      2744000 1.1281798e-05    13164.234 
   20070    6008.1771    6008.1771    5077.4847    5124.8349          140          140          140      2744000 0.0089279539    13162.587 
   20071    6008.1771    6008.1771    5084.1902    5123.6665          140          140          140      2744000 0.0060456704    13161.848 
   20072    6008.1771    6008.1771    5078.2108    5122.7559          140          140          140      2744000  0.045022251     13160.82 
   20073    6008.1771    6008.1771     5078.632    5109.1034          140          140          140      2744000   0.10608127    13160.113 
   20074    6008.1771    6008.1771    5063.8341    5089.2889          140          140          140      2744000 0.0008585592    13159.203 
   20075    6008.1771    6008.1771    5084.9575    5082.6516          140          140          140      2744000  0.013974852    13158.124 
   20076    6008.1771    6008.1771    5102.4162    5078.6813          140          140          140      2744000  0.024169971    13157.599 
   20077    6008.1771    6008.1771    5092.6675    5077.9877          140          140          140      2744000 0.0014924207    13156.874 
   20078    6008.1771    6008.1771    5080.0097    5079.2503          140          140          140      2744000  0.011390283    13156.245 
   20079    6008.1771    6008.1771    5086.6245    5082.9027          140          140          140      2744000   0.10303408    13155.841 
   20080    6008.1771    6008.1771    5089.5698    5084.1112          140          140          140      2744000   0.16365496    13155.442 
   20081    6008.1771    6008.1771    5088.9832    5084.5905          140          140          140      2744000   0.23642425    13154.845 
   20082    6008.1771    6008.1771    5087.7083    5085.5403          140          140          140      2744000    0.3494152    13154.112 
   20083    6008.1771    6008.1771    5091.7425    5086.8513          140          140          140      2744000   0.33020557    13153.118 
   20084    6008.1771    6008.1771    5093.9338    5089.8613          140          140          140      2744000    0.2393418      13152.2 
   20085    6008.1771    6008.1771    5090.9828    5090.4638          140          140          140      2744000   0.18132298    13151.597 
   20086    6008.1771    6008.1771    5098.3677     5090.059          140          140          140      2744000    0.1633515    13150.948 
   20087    6008.1771    6008.1771    5081.7445    5088.9667          140          140          140      2744000 0.00014087783    13150.551 
   20088    6008.1771    6008.1771    5073.3943    5088.3052          140          140          140      2744000 0.0051737747    13149.867 
   20089    6008.1771    6008.1771    5084.7226     5088.115          140          140          140      2744000   0.15958665    13148.928 
   20090    6008.1771    6008.1771    5080.5953    5087.2175          140          140          140      2744000   0.06422215    13148.605 
   20091    6008.1771    6008.1771    5089.0167    5087.2209          140          140          140      2744000   0.13311346    13148.082 
   20092    6008.1771    6008.1771    5090.6098     5087.511          140          140          140      2744000   0.10790982    13147.658 
   20093    6008.1771    6008.1771    5090.4412    5087.3809          140          140          140      2744000  0.039884844    13147.276 
   20094    6008.1771    6008.1771    5083.0799    5086.2955          140          140          140      2744000 0.0010540165    13147.064 
   20095    6008.1771    6008.1771    5080.2642    5085.2236          140          140          140      2744000  0.012877906    13146.263 
   20096    6008.1771    6008.1771    5091.4373    5084.5306          140          140          140      2744000  0.078531439    13145.637 
   20097    6008.1771    6008.1771    5083.5906    5084.7152          140          140          140      2744000  0.039695729     13145.34 
   20098    6008.1771    6008.1771    5081.6265    5085.5384          140          140          140      2744000  0.042169831    13144.893 
   20099    6008.1771    6008.1771    5085.9364    5085.6598          140          140          140      2744000   0.03409121    13144.689 
   20100    6008.1771    6008.1771    5097.2805    5087.3283          140          140          140      2744000   0.13690896    13144.332 
   20101    6008.1771    6008.1771    5098.1798    5088.2446          140          140          140      2744000   0.10865053    13143.999 
   20102    6008.1771    6008.1771    5095.4433     5088.728          140          140          140      2744000   0.14139431    13143.504 
   20103    6008.1771    6008.1771    5090.7186    5088.7557          140          140          140      2744000   0.10528861    13142.709 
   20104    6008.1771    6008.1771    5083.7057    5088.8183          140          140          140      2744000  0.067222675    13142.106 
   20105    6008.1771    6008.1771    5079.4732    5088.7392          140          140          140      2744000  0.055983732     13141.57 
   20106    6008.1771    6008.1771    5071.7586    5086.7713          140          140          140      2744000 2.8040648e-07    13141.426 
   20107    6008.1771    6008.1771    5080.2678     5086.439          140          140          140      2744000 0.0018120201    13141.019 
   20108    6008.1771    6008.1771    5100.9762     5088.374          140          140          140      2744000   0.11041502    13140.289 
   20109    6008.1771    6008.1771     5094.796      5089.26          140          140          140      2744000  0.061423664    13140.071 
   20110    6008.1771    6008.1771    5094.3837    5088.9703          140          140          140      2744000  0.065985401    13139.621 
   20111    6008.1771    6008.1771    5088.5404    5088.0063          140          140          140      2744000  0.097260948    13139.327 
   20112    6008.1771    6008.1771    5084.5632    5086.9183          140          140          140      2744000  0.064585084    13139.032 
   20113    6008.1771    6008.1771    5084.7831    5086.3248          140          140          140      2744000   0.07048197    13138.689 
   20114    6008.1771    6008.1771    5091.6779     5087.122          140          140          140      2744000   0.19491818    13138.251 
   20115    6008.1771    6008.1771    5091.4559    5088.3203          140          140          140      2744000   0.12541625     13137.57 
   20116    6008.1771    6008.1771    5088.7569    5090.0201          140          140          140      2744000  0.071323846    13137.069 
   20117    6008.1771    6008.1771    5083.8541    5090.3787          140          140          140      2744000  0.054159927    13136.732 
   20118    6008.1771    6008.1771    5082.5956    5088.5407          140          140          140      2744000  0.030872655    13136.411 
   20119    6008.1771    6008.1771    5074.7742    5086.5385          140          140          140      2744000 3.250784e-05    13136.316 
   20120    6008.1771    6008.1771    5077.6312    5084.8633          140          140          140      2744000  0.012288765    13136.029 
   20121    6008.1771    6008.1771    5078.9588    5083.9051          140          140          140      2744000  0.017104889    13135.844 
   20122    6008.1771    6008.1771    5086.2038    5084.0692          140          140          140      2744000    0.1312299    13135.372 
   20123    6008.1771    6008.1771     5080.004    5083.5913          140          140          140      2744000  0.014834649    13135.007 
   20124    6008.1771    6008.1771    5086.2386    5083.0473          140          140          140      2744000  0.077090435    13134.689 
   20125    6008.1771    6008.1771    5089.1842    5082.8201          140          140          140      2744000  0.046323743    13134.507 
   20126    6008.1771    6008.1771    5103.1155     5084.256          140          140          140      2744000   0.13685994    13134.052 
   20127    6008.1771    6008.1771    5094.8469    5085.3553          140          140          140      2744000  0.081853622    13133.749 
   20128    6008.1771    6008.1771    5097.5381    5086.8495          140          140          140      2744000   0.17495887    13133.217 
   20129    6008.1771    6008.1771    5086.0226    5087.9744          140          140          140      2744000  0.052728908    13132.806 
   20130    6008.1771    6008.1771    5079.3931    5088.1506          140          140          140      2744000  0.036623332    13132.517 
   20131    6008.1771    6008.1771    5081.9504    5088.4497          140          140          140      2744000  0.052393703    13132.238 
   20132    6008.1771    6008.1771    5080.6211    5087.8915          140          140          140      2744000   0.07062331    13131.997 
   20133    6008.1771    6008.1771    5087.6875    5088.6598          140          140          140      2744000  0.052015839    13131.629 
   20134    6008.1771    6008.1771    5083.9871    5088.4347          140          140          140      2744000  0.056285693    13131.403 
   20135    6008.1771    6008.1771    5079.0614    5087.4224          140          140          140      2744000  0.017041693    13130.966 
   20136    6008.1771    6008.1771    5081.1037    5085.2212          140          140          140      2744000  0.040219633    13130.384 
   20137    6008.1771    6008.1771      5080.76    5083.8125          140          140          140      2744000  0.050676467    13130.056 
   20138    6008.1771    6008.1771    5081.4103    5082.1997          140          140          140      2744000  0.043176175    13129.543 
   20139    6008.1771    6008.1771    5076.5247      5081.25          140          140          140      2744000 0.0080403989    13129.289 
   20140    6008.1771    6008.1771    5081.2229    5081.4329          140          140          140      2744000  0.092350538    13128.957 
   20141    6008.1771    6008.1771    5076.0814     5080.846          140          140          140      2744000 0.0012636901    13128.772 
   20142    6008.1771    6008.1771    5075.4816    5080.3321          140          140          140      2744000 0.0026042524    13128.292 
   20143    6008.1771    6008.1771    5081.4451    5079.7078          140          140          140      2744000  0.053054365    13127.767 
   20144    6008.1771    6008.1771    5071.9914    5078.5083          140          140          140      2744000 0.0094616491    13127.588 
   20145    6008.1771    6008.1771    5078.8925    5078.4914          140          140          140      2744000  0.011276235    13127.035 
   20146    6008.1771    6008.1771    5082.2519    5078.6062          140          140          140      2744000  0.054177324    13126.802 
   20147    6008.1771    6008.1771    5087.6632    5079.2965          140          140          140      2744000  0.075928216    13126.459 
   20148    6008.1771    6008.1771    5092.1735    5080.3728          140          140          140      2744000   0.08581271    13126.048 
   20149    6008.1771    6008.1771    5090.9276    5081.8131          140          140          140      2744000  0.090708445    13125.672 
   20150    6008.1771    6008.1771     5078.344    5081.5252          140          140          140      2744000  0.025177677    13125.324 
   20151    6008.1771    6008.1771    5078.1528    5081.7324          140          140          140      2744000  0.018176096    13125.058 
   20152    6008.1771    6008.1771    5081.2625    5082.3105          140          140          140      2744000  0.031203834    13124.807 
   20153    6008.1771    6008.1771    5087.1127    5082.8772          140          140          140      2744000  0.033895195    13124.511 
   20154    6008.1771    6008.1771    5081.8414    5083.8622          140          140          140      2744000  0.022498885    13124.355 
   20155    6008.1771    6008.1771    5078.1463    5083.7876          140          140          140      2744000  0.011787909    13124.166 
   20156    6008.1771    6008.1771    5081.1237    5083.6748          140          140          140      2744000  0.030772743    13123.915 
   20157    6008.1771    6008.1771     5078.722    5082.7807          140          140          140      2744000  0.038242333    13123.707 
   20158    6008.1771    6008.1771    5081.9471     5081.758          140          140          140      2744000  0.043321989    13123.459 
   20159    6008.1771    6008.1771    5079.0534    5080.5706          140          140          140      2744000  0.028230709    13123.303 
   20160    6008.1771    6008.1771    5077.9875     5080.535          140          140          140      2744000  0.021352431    13123.106 
   20161    6008.1771    6008.1771    5082.0281    5080.9225          140          140          140      2744000  0.044184462    13122.812 
   20162    6008.1771    6008.1771    5078.2673     5080.623          140          140          140      2744000  0.028037586    13122.593 
   20163    6008.1771    6008.1771    5075.0273    5079.4144          140          140          140      2744000  0.011511902    13122.367 
   20164    6008.1771    6008.1771    5081.3302    5079.3633          140          140          140      2744000  0.032405078    13122.097 
   20165    6008.1771    6008.1771    5078.7246    5079.4211          140          140          140      2744000  0.042697811    13121.997 
   20166    6008.1771    6008.1771    5080.2311    5079.3319          140          140          140      2744000  0.069176401    13121.749 
   20167    6008.1771    6008.1771    5074.6117    5078.9208          140          140          140      2744000 0.0082139417    13121.593 
   20168    6008.1771    6008.1771    5078.3891     5078.565          140          140          140      2744000  0.033678691    13121.377 
   20169    6008.1771    6008.1771    5077.5491    5078.4146          140          140          140      2744000  0.011774592    13121.232 
   20170    6008.1771    6008.1771    5079.5529    5078.5711          140          140          140      2744000  0.024709754    13120.848 
   20171    6008.1771    6008.1771    5075.8868     5077.957          140          140          140      2744000 0.0069856528     13120.71 
   20172    6008.1771    6008.1771    5073.3654    5077.4668          140          140          140      2744000 0.0012973845     13120.45 
   20173    6008.1771    6008.1771    5078.2746    5077.7916          140          140          140      2744000  0.043460148    13120.228 
   20174    6008.1771    6008.1771    5074.5085    5077.1094          140          140          140      2744000 0.0039000608    13120.075 
   20175    6008.1771    6008.1771    5073.1887    5076.5558          140          140          140      2744000 0.0011417504    13119.658 
   20176    6008.1771    6008.1771    5085.3035     5077.063          140          140          140      2744000  0.055798903    13119.403 
   20177    6008.1771    6008.1771    5079.5496    5077.5568          140          140          140      2744000  0.012345539    13119.282 
   20178    6008.1771    6008.1771    5089.9849    5078.7164          140          140          140      2744000  0.096514614    13119.012 
   20179    6008.1771    6008.1771    5084.6315    5079.4246          140          140          140      2744000  0.054717794    13118.765 
   20180    6008.1771    6008.1771    5081.5767     5079.627          140          140          140      2744000   0.02532624    13118.621 
   20181    6008.1771    6008.1771    5082.6112    5080.2995          140          140          140      2744000  0.059460594    13118.467 
   20182    6008.1771    6008.1771    5078.2875    5080.7917          140          140          140      2744000  0.019940983    13118.335 
   20183    6008.1771    6008.1771    5084.5052    5081.4147          140          140          140      2744000  0.033866632    13118.219 
   20184    6008.1771    6008.1771    5078.1215     5081.776          140          140          140      2744000  0.011698183    13118.089 
   20185    6008.1771    6008.1771    5079.7152    5082.4287          140          140          140      2744000  0.011609711    13117.932 
   20186    6008.1771    6008.1771     5082.093    5082.1076          140          140          140      2744000  0.025148275    13117.811 
   20187    6008.1771    6008.1771    5076.4062    5081.7933          140          140          140      2744000  0.011507484    13117.699 
   20188    6008.1771    6008.1771    5077.4432    5080.5391          140          140          140      2744000 0.0097401879    13117.546 
   20189    6008.1771    6008.1771    5085.2245    5080.5984          140          140          140      2744000  0.039250789    13117.412 
   20190    6008.1771    6008.1771    5081.3534    5080.5761          140          140          140      2744000  0.023167844    13117.295 
   20191    6008.1771    6008.1771    5081.0202     5080.417          140          140          140      2744000  0.021203022     13117.18 
   20192    6008.1771    6008.1771    5074.5544    5080.0437          140          140          140      2744000 0.0032082238    13117.073 
   20193    6008.1771    6008.1771    5077.2568    5079.3188          140          140          140      2744000 0.0094168837    13116.913 
   20194    6008.1771    6008.1771    5084.8658    5079.9933          140          140          140      2744000   0.03043458    13116.783 
   20195    6008.1771    6008.1771    5078.1447    5079.8362          140          140          140      2744000  0.009634749    13116.624 
   20196    6008.1771    6008.1771    5074.5745    5079.0844          140          140          140      2744000 0.0046351942    13116.507 
   20197    6008.1771    6008.1771    5082.7589    5079.7196          140          140          140      2744000   0.03342325    13116.309 
   20198    6008.1771    6008.1771    5080.9342    5080.0687          140          140          140      2744000  0.018972761    13116.171 
   20199    6008.1771    6008.1771    5081.7944    5079.7257          140          140          140      2744000  0.029955758    13115.987 
   20200    6008.1771    6008.1771    5076.7471    5079.2651          140          140          140      2744000 0.0077301484     13115.92 
   20201    6008.1771    6008.1771    5078.3318    5078.9963          140          140          140      2744000  0.019324644    13115.796 
   20202    6008.1771    6008.1771      5079.93    5079.5338          140          140          140      2744000  0.021363519    13115.698 
   20203    6008.1771    6008.1771    5080.0421    5079.8124          140          140          140      2744000  0.019489345    13115.574 
   20204    6008.1771    6008.1771    5078.3882    5079.1646          140          140          140      2744000 0.0084694502    13115.505 
   20205    6008.1771    6008.1771    5075.2635    5078.8765          140          140          140      2744000  0.011749683    13115.398 
   20206    6008.1771    6008.1771    5077.9153    5079.2106          140          140          140      2744000  0.014360825    13115.283 
   20207    6008.1771    6008.1771    5078.6371    5078.7984          140          140          140      2744000  0.017524012    13115.203 
   20208    6008.1771    6008.1771    5078.3333    5078.5383          140          140          140      2744000 0.0098565835    13115.156 
   20209    6008.1771    6008.1771    5079.4071    5078.2996          140          140          140      2744000  0.014438137    13115.078 
   20210    6008.1771    6008.1771    5078.4728    5078.4721          140          140          140      2744000  0.014680043    13115.001 
   20211    6008.1771    6008.1771    5079.8176    5078.6207          140          140          140      2744000   0.01880943    13114.932 
   20212    6008.1771    6008.1771    5075.7266    5078.2004          140          140          140      2744000 0.0091372296    13114.871 
   20213    6008.1771    6008.1771    5079.4983     5078.146          140          140          140      2744000  0.018141615    13114.812 
   20214    6008.1771    6008.1771    5078.8826    5078.1954          140          140          140      2744000  0.013517728    13114.742 
   20215    6008.1771    6008.1771    5079.4288     5078.612          140          140          140      2744000  0.011738475    13114.667 
   20216    6008.1771    6008.1771    5080.0256     5078.823          140          140          140      2744000   0.01758086    13114.612 
   20217    6008.1771    6008.1771    5077.9988    5078.7592          140          140          140      2744000  0.012301609    13114.552 
   20218    6008.1771    6008.1771    5075.3377    5078.4596          140          140          140      2744000 0.0092102159    13114.477 
   20219    6008.1771    6008.1771     5077.766    5078.2955          140          140          140      2744000  0.017268883    13114.414 
   20220    6008.1771    6008.1771    5077.9691    5078.2451          140          140          140      2744000  0.010137237    13114.365 
   20221    6008.1771    6008.1771    5078.7143    5078.1348          140          140          140      2744000  0.018834727      13114.3 
   20222    6008.1771    6008.1771     5075.647    5078.1268          140          140          140      2744000 0.0080536518    13114.225 
   20223    6008.1771    6008.1771      5078.55     5078.032          140          140          140      2744000  0.013071622     13114.16 
   20224    6008.1771    6008.1771    5077.6096    5077.9047          140          140          140      2744000  0.011652686    13114.109 
   20225    6008.1771    6008.1771     5078.776    5077.8394          140          140          140      2744000  0.013793076    13114.054 
   20226    6008.1771    6008.1771    5077.7539    5077.6122          140          140          140      2744000  0.013829998    13113.992 
   20227    6008.1771    6008.1771    5077.1815    5077.5305          140          140          140      2744000 0.0099736152    13113.931 
   20228    6008.1771    6008.1771    5077.6471    5077.7615          140          140          140      2744000  0.013350733    13113.889 
   20229    6008.1771    6008.1771     5078.846    5077.8695          140          140          140      2744000   0.01479954    13113.834 
   20230    6008.1771    6008.1771    5077.2327    5077.7958          140          140          140      2744000  0.015049885    13113.789 
   20231    6008.1771    6008.1771    5077.4416    5077.6685          140          140          140      2744000  0.010055459    13113.726 
   20232    6008.1771    6008.1771    5077.4865    5077.8525          140          140          140      2744000  0.010683949    13113.675 
   20233    6008.1771    6008.1771    5077.4413    5077.7416          140          140          140      2744000 0.0094007695    13113.628 
   20234    6008.1771    6008.1771    5077.5561    5077.7363          140          140          140      2744000  0.010971096    13113.575 
   20235    6008.1771    6008.1771    5078.7101    5077.7297          140          140          140      2744000 0.0092158367    13113.538 
   20236    6008.1771    6008.1771    5077.9258    5077.7469          140          140          140      2744000  0.011128423    13113.479 
   20237    6008.1771    6008.1771    5078.0136    5077.8301          140          140          140      2744000  0.010204053    13113.445 
   20238    6008.1771    6008.1771    5077.6334    5077.8287          140          140          140      2744000 0.0098223487     13113.39 
   20239    6008.1771    6008.1771    5078.6752    5077.8116          140          140          140      2744000 0.0091475735    13113.357 
   20240    6008.1771    6008.1771    5077.9581    5077.8842          140          140          140      2744000 0.0089260616    13113.308 
   20241    6008.1771    6008.1771    5077.8954    5077.9296          140          140          140      2744000  0.010933522    13113.256 
   20242    6008.1771    6008.1771    5077.4985    5077.9308          140          140          140      2744000 0.0094172405    13113.209 
   20243    6008.1771    6008.1771    5078.2383    5078.0105          140          140          140      2744000   0.01212884     13113.17 
   20244    6008.1771    6008.1771    5077.7529    5078.0301          140          140          140      2744000 0.0089631495    13113.136 
   20245    6008.1771    6008.1771    5078.7908    5078.0382          140          140          140      2744000 0.0089686752    13113.095 
   20246    6008.1771    6008.1771    5077.1249    5077.9581          140          140          140      2744000 0.0099643824     13113.05 
   20247    6008.1771    6008.1771    5077.3083    5077.8876          140          140          140      2744000 0.0086830284    13113.014 
   20248    6008.1771    6008.1771    5076.1487    5077.7391          140          140          140      2744000 0.0048767985    13112.967 
   20249    6008.1771    6008.1771    5078.3712    5077.7087          140          140          140      2744000  0.010517527    13112.924 
   20250    6008.1771    6008.1771    5076.6779    5077.5807          140          140          140      2744000 0.0076345326    13112.888 
   20251    6008.1771    6008.1771    5077.3459    5077.5257          140          140          140      2744000 0.0082294321    13112.855 
   20252    6008.1771    6008.1771     5078.006    5077.5765          140          140          140      2744000 0.0088422994    13112.828 
   20253    6008.1771    6008.1771    5078.2321    5077.5759          140          140          140      2744000 0.0079220733    13112.797 
   20254    6008.1771    6008.1771    5078.2514    5077.6257          140          140          140      2744000 0.0081875824    13112.766 
   20255    6008.1771    6008.1771    5078.0671    5077.5533          140          140          140      2744000 0.0068178036    13112.725 
   20256    6008.1771    6008.1771    5080.1653    5077.8574          140          140          140      2744000  0.013012467    13112.688 
   20257    6008.1771    6008.1771    5077.5577    5077.8823          140          140          140      2744000  0.004732908     13112.66 
   20258    6008.1771    6008.1771    5077.9034    5078.0578          140          140          140      2744000  0.011745893    13112.624 
   20259    6008.1771    6008.1771    5076.5682    5077.8775          140          140          140      2744000 0.0032638265    13112.589 
   20260    6008.1771    6008.1771     5080.029    5078.2126          140          140          140      2744000  0.011752985    13112.562 
   20261    6008.1771    6008.1771    5078.0731    5078.2853          140          140          140      2744000 0.0057916645    13112.524 
   20262    6008.1771    6008.1771    5078.4733    5078.3321          140          140          140      2744000 0.0097741359    13112.501 
   20263    6008.1771    6008.1771    5077.9417     5078.303          140          140          140      2744000 0.0078868466    13112.466 
   20264    6008.1771    6008.1771    5077.1516     5078.193          140          140          140      2744000 0.0053250625    13112.437 
   20265    6008.1771    6008.1771    5077.2766     5078.114          140          140          140      2744000 0.0065890654    13112.412 
   20266    6008.1771    6008.1771     5077.628    5077.8603          140          140          140      2744000 0.0053750545    13112.384 
   20267    6008.1771    6008.1771    5077.9618    5077.9007          140          140          140      2744000 0.0073098906     13112.36 
   20268    6008.1771    6008.1771    5078.3287    5077.9432          140          140          140      2744000  0.011585949    13112.335 
   20269    6008.1771    6008.1771    5077.7955    5078.0659          140          140          140      2744000 0.0049019599    13112.308 
   20270    6008.1771    6008.1771    5078.5771    5077.9207          140          140          140      2744000 0.0067822068    13112.288 
   20271    6008.1771    6008.1771    5078.1775    5077.9312          140          140          140      2744000 0.0079336655    13112.264 
   20272    6008.1771    6008.1771     5076.519    5077.7358          140          140          140      2744000 0.0056017885    13112.239 
   20273    6008.1771    6008.1771    5077.1982    5077.6614          140          140          140      2744000 0.0055744032    13112.219 
   20274    6008.1771    6008.1771    5077.8956    5077.7358          140          140          140      2744000 0.0051663119    13112.202 
   20275    6008.1771    6008.1771    5077.9531    5077.8034          140          140          140      2744000 0.0065236954    13112.181 
   20276    6008.1771    6008.1771    5077.8607    5077.8267          140          140          140      2744000 0.0049893481    13112.154 
   20277    6008.1771    6008.1771    5077.7178    5077.8023          140          140          140      2744000 0.0043488027    13112.126 
   20278    6008.1771    6008.1771    5077.8227    5077.7517          140          140          140      2744000 0.0068338869    13112.107 
   20279    6008.1771    6008.1771    5077.1804    5077.6902          140          140          140      2744000 0.0055421662    13112.088 
   20280    6008.1771    6008.1771    5077.3391    5077.5664          140          140          140      2744000 0.0052891603    13112.071 
   20281    6008.1771    6008.1771    5078.5701    5077.6057          140          140          140      2744000 0.0064531358     13112.05 
   20282    6008.1771    6008.1771    5077.6721     5077.721          140          140          140      2744000  0.004821789    13112.034 
   20283    6008.1771    6008.1771    5077.9505    5077.7962          140          140          140      2744000  0.005505297    13112.016 
   20284    6008.1771    6008.1771    5077.6143    5077.7681          140          140          140      2744000 0.0056332538    13111.999 
   20285    6008.1771    6008.1771    5077.2839    5077.7012          140          140          140      2744000 0.0048520851     13111.98 
   20286    6008.1771    6008.1771    5078.3814    5077.7532          140          140          140      2744000 0.0048245756    13111.961 
   20287    6008.1771    6008.1771    5078.0324    5077.7847          140          140          140      2744000  0.004370781    13111.941 
   20288    6008.1771    6008.1771    5077.6645    5077.7689          140          140          140      2744000 0.0037622783    13111.924 
   20289    6008.1771    6008.1771    5077.8233    5077.8332          140          140          140      2744000  0.004608999    13111.907 
   20290    6008.1771    6008.1771    5077.5096    5077.8502          140          140          140      2744000  0.003815436     13111.89 
   20291    6008.1771    6008.1771    5078.0095    5077.7942          140          140          140      2744000 0.0048238487    13111.872 
   20292    6008.1771    6008.1771    5079.0068    5077.9276          140          140          140      2744000 0.0059667859    13111.855 
   20293    6008.1771    6008.1771    5077.1406    5077.8466          140          140          140      2744000 0.0037578487    13111.841 
   20294    6008.1771    6008.1771    5077.6607    5077.8513          140          140          140      2744000 0.0034562303    13111.828 
   20295    6008.1771    6008.1771    5078.2105    5077.9439          140          140          140      2744000 0.0051969795    13111.815 
   20296    6008.1771    6008.1771    5077.8888    5077.8947          140          140          140      2744000 0.0044354296    13111.799 
   20297    6008.1771    6008.1771    5078.6568    5077.9571          140          140          140      2744000 0.0047315819    13111.783 
   20298    6008.1771    6008.1771    5078.1198    5078.0026          140          140          140      2744000 0.0052791229    13111.769 
   20299    6008.1771    6008.1771    5076.6485    5077.8852          140          140          140      2744000 0.0030515944    13111.757 
   20300    6008.1771    6008.1771       5077.8    5077.9142          140          140          140      2744000 0.0037352617    13111.746 
   20301    6008.1771    6008.1771    5077.8427    5077.8975          140          140          140      2744000 0.0035641069    13111.734 
   20302    6008.1771    6008.1771     5077.586    5077.7554          140          140          140      2744000 0.0030770822    13111.723 
   20303    6008.1771    6008.1771    5078.1997    5077.8613          140          140          140      2744000 0.0052713798     13111.71 
   20304    6008.1771    6008.1771    5077.5441    5077.8497          140          140          140      2744000 0.0035959538    13111.699 
   20305    6008.1771    6008.1771    5078.0183    5077.8305          140          140          140      2744000 0.0039365271    13111.688 
   20306    6008.1771    6008.1771    5077.1886    5077.7604          140          140          140      2744000 0.0032960663    13111.679 
   20307    6008.1771    6008.1771    5078.4845    5077.7432          140          140          140      2744000 0.0034814153    13111.669 
   20308    6008.1771    6008.1771    5077.7833    5077.7096          140          140          140      2744000 0.0043472717    13111.656 
   20309    6008.1771    6008.1771    5078.5086    5077.8956          140          140          140      2744000 0.0046876213    13111.646 
   20310    6008.1771    6008.1771    5077.2938     5077.845          140          140          140      2744000 0.0027255069    13111.634 
   20311    6008.1771    6008.1771    5076.8709    5077.7478          140          140          140      2744000 0.0033984251    13111.625 
   20312    6008.1771    6008.1771    5078.6547    5077.8547          140          140          140      2744000 0.0033569756    13111.614 
   20313    6008.1771    6008.1771    5077.8089    5077.8156          140          140          140      2744000 0.0030804172    13111.604 
   20314    6008.1771    6008.1771     5077.878     5077.849          140          140          140      2744000 0.0037914463    13111.594 
   20315    6008.1771    6008.1771    5077.6919    5077.8163          140          140          140      2744000 0.0030056023    13111.585 
   20316    6008.1771    6008.1771    5077.9764    5077.8951          140          140          140      2744000 0.0025576287    13111.577 
   20317    6008.1771    6008.1771    5078.3631     5077.883          140          140          140      2744000 0.0037165907    13111.569 
   20318    6008.1771    6008.1771    5077.7386    5077.8785          140          140          140      2744000 0.0029233591    13111.558 
   20319    6008.1771    6008.1771    5077.6274    5077.7904          140          140          140      2744000 0.0027480081    13111.549 
   20320    6008.1771    6008.1771    5078.1059    5077.8716          140          140          140      2744000 0.0030109377    13111.535 
   20321    6008.1771    6008.1771    5077.7939    5077.9639          140          140          140      2744000 0.0033456644    13111.527 
   20322    6008.1771    6008.1771    5077.3985    5077.8382          140          140          140      2744000 0.0020572252    13111.519 
   20323    6008.1771    6008.1771    5077.6715    5077.8245          140          140          140      2744000 0.0028102484     13111.51 
   20324    6008.1771    6008.1771    5077.7558    5077.8123          140          140          140      2744000 0.0025269963    13111.503 
   20325    6008.1771    6008.1771    5078.2077    5077.8639          140          140          140      2744000 0.0042704044    13111.495 
   20326    6008.1771    6008.1771    5077.5792    5077.8241          140          140          140      2744000 0.0024430175    13111.488 
   20327    6008.1771    6008.1771    5077.7344    5077.7613          140          140          140      2744000 0.0029125364     13111.48 
   20328    6008.1771    6008.1771    5078.1767    5077.8051          140          140          140      2744000 0.0020316149    13111.473 
   20329    6008.1771    6008.1771    5078.5988    5077.9022          140          140          140      2744000 0.0036117205    13111.466 
   20330    6008.1771    6008.1771    5078.4306    5077.9347          140          140          140      2744000 0.0024654382    13111.458 
   20331    6008.1771    6008.1771    5078.1218    5077.9675          140          140          140      2744000 0.0025086085    13111.452 
   20332    6008.1771    6008.1771    5075.0544    5077.7331          140          140          140      2744000 2.4064893e-06    13111.449 
Loop time of 5.47861 on 48 procs for 332 steps with 16800 atoms

Minimization stats:
  E initial, next-to-last, final = 4087.99 65.0484 65.0456
  Gradient 2-norm init/final= 647.745 0.770137
  Gradient inf-norm init/final= 34.8539 0.0510928
  Iterations = 332
  Force evaluations = 2086

Pair  time (%) = 0.0720443 (1.31501)
Bond  time (%) = 0.223373 (4.07719)
Neigh time (%) = 0.000343944 (0.00627794)
Comm  time (%) = 2.67505 (48.8272)
Outpt time (%) = 0.436124 (7.96049)
Other time (%) = 2.07167 (37.8138)

Nlocal:    350 ave 421 max 297 min
Histogram: 4 1 7 10 10 7 3 4 0 2
Nghost:    351.333 ave 416 max 293 min
Histogram: 1 5 4 8 11 5 8 3 1 2
Neighs:    349.875 ave 488 max 249 min
Histogram: 2 3 10 7 10 8 4 1 2 1

Total # of neighbors = 16794
Ave neighs/atom = 0.999643
Ave special neighs/atom = 2.14286
Neighbor list builds = 1
Dangerous builds = 0

#########################################################################
# simulated annealing to create structure
pair_style sw
pair_coeff * * OCS.sw Si O C

thermo		100

unfix		1
fix		1 active npt 9000 3000 0.0100 xyz 90000 60000 0.1000 drag 2.00
run		50000
Memory usage per processor = 2.63394 Mbytes
Step Temp T_ave Press P_ave Lx Ly Lz Volume E_pair TotEng 
   20332    6008.1771    6008.1771    10886.252    5077.7331          140          140          140      2744000    3384.9876    16496.436 
   20400    8839.7007    6291.3294    87444.252    13314.391    85.199763    85.199763    85.199763    618465.05    -465.0049    23467.514 
   20500    8947.3715    6585.2489    88612.739     21667.89    77.616058    77.616058    77.616058    467578.73   -4673.6244     20034.05 
   20600    9023.0379     6886.735    86657.004    29825.769    76.780253    76.780253    76.780253     452635.5   -6125.3171     19094.22 
   20700    8967.3808    7182.6553    88816.008    38199.612    76.430998    76.430998    76.430998    446486.76   -6453.1407    18761.048 
   20800     8886.522    7470.4898    92032.415     46895.08    76.201932    76.201932    76.201932    442484.39   -6613.6878    18450.516 
   20900    8909.3249    7760.6046    87571.436    55144.406    76.238054    76.238054    76.238054    443113.93   -6669.7366    18505.183 
   21000    8903.0181    8050.0887    90591.255    63695.672    76.119636    76.119636    76.119636    441052.32   -6670.1497    18434.671 
   21100    8933.7352    8342.6445    88825.256    72070.354    76.200928    76.200928    76.200928     442466.9   -6669.3265    18441.678 
   21200     8979.679    8639.7947    89129.522    80475.494    76.128678    76.128678    76.128678    441209.51   -6687.7839    18472.928 
   21300    8940.8644    8933.0635     86886.02    88656.591    76.153631    76.153631    76.153631    441643.51   -6801.6432    18284.403 
   21400    8833.7981    8932.4732    91013.464    89013.512    76.155352    76.155352    76.155352    441673.45   -6642.0871     18246.89 
   21500     8878.883    8925.6243    91845.381    89336.776    75.935385    75.935385    75.935385     437857.3   -6809.6987    18232.525 
   21600    8893.2584    8912.6464    89708.762    89641.952    75.985396    75.985396    75.985396    438722.99   -6871.0054    18170.698 
   21700    8824.2424    8898.3325    89670.895    89727.441    75.954723    75.954723    75.954723    438191.91      -6916.5    17866.633 
   21800    8851.6181    8894.8422    88681.629    89392.362    75.981354    75.981354    75.981354    438652.98   -6919.4089    18032.031 
   21900     8841.634    8888.0731     90987.84    89734.002    75.989055    75.989055    75.989055    438786.36   -6971.2659    17858.818 
   22000    8719.3589    8869.7071    89991.094    89673.986    75.871349    75.871349    75.871349    436750.51   -6840.6409    17784.111 
   22100    8865.1051    8862.8441    86238.419    89415.302    76.005736    76.005736    76.005736    439075.41   -6896.4772    18030.831 
   22200    8743.9238    8839.2686    88168.264    89319.177    76.068398    76.068398    76.068398    440162.27    -6947.724    17807.134 
   22300    8734.1438    8818.5965    90264.462    89657.021    75.915012    75.915012    75.915012    437504.97   -6986.9353    17607.041 
   22400    8701.2716    8805.3439    84735.198    89029.194    76.080938    76.080938    76.080938    440379.98    -6940.709    17719.967 
   22500    8721.8818    8789.6438    88226.023    88667.259    75.979014    75.979014    75.979014    438612.46   -6955.2888    17553.932 
   22600     8765.505    8776.8684    88963.372     88592.72    75.967258    75.967258    75.967258    438408.89   -6913.6722    17686.941 
   22700     8697.427    8764.1869     86168.31    88242.461    75.946892    75.946892    75.946892    438056.39    -6982.873    17493.385 
   22800    8643.3696     8743.362    89537.766    88328.075    75.973917    75.973917    75.973917    438524.19   -6979.8394    17403.176 
   22900    8644.1641    8723.6151    85814.405    87810.731    76.053434    76.053434    76.053434    439902.55   -7172.2497    17239.214 
   23000     8709.842    8722.6634    90359.096    87847.531    75.848146    75.848146    75.848146    436349.92   -7140.5858    17373.897 
   23100    8639.4644    8700.0993    86247.339    87848.423     75.87724     75.87724     75.87724    436852.24    -7154.038    17167.435 
   23200    8570.4018    8682.7471     87132.54    87744.851      75.9078      75.9078      75.9078     437380.3   -7093.2961    17159.539 
   23300    8592.3425     8668.567    86569.477    87375.353    75.908685    75.908685    75.908685     437395.6   -7072.2453    17180.561 
   23400    8670.6469    8665.5045    87060.884    87607.921    75.759046    75.759046    75.759046    434813.97   -7198.1417     17290.86 
   23500    8652.8785    8658.6042    87530.429    87538.362    75.955403    75.955403    75.955403    438203.67   -7144.0244    17165.951 
   23600    8609.7882    8643.0325    87063.213    87348.346    75.828955    75.828955    75.828955     436018.8    -7112.626    17125.023 
   23700    8579.6831    8631.2581    90446.504    87776.165    75.800291    75.800291    75.800291    435524.52   -7132.1071    17173.159 
   23800    8543.0995    8621.2311    85677.735    87390.162    75.918466    75.918466    75.918466     437564.7   -7193.1955    16907.764 
   23900    8564.1103    8613.2257    88105.928    87619.315     75.82943     75.82943     75.82943    436026.99    -7106.475    17111.388 
   24000    8522.3714    8594.4787    88068.998    87390.305    75.862437    75.862437    75.862437    436596.62   -7154.0747    16821.338 
   24100    8480.5384    8578.5861    89509.218    87716.493    75.864346    75.864346    75.864346    436629.58   -7142.7338    16738.615 
   24200    8606.2971    8582.1756    86556.389    87658.878    75.922421    75.922421    75.922421    437633.08   -7163.9693    16978.328 
   24300    8516.2195    8574.5633     86581.01    87660.031    75.893901    75.893901    75.893901    437140.08   -7085.0329    16886.897 
   24400    8554.6952    8562.9681    90300.067    87983.949    75.783144    75.783144    75.783144    435229.02   -7158.1081    16767.328 
   24500    8450.1535    8542.6956    89268.882    88157.795    75.748511    75.748511    75.748511     434632.6   -7098.6425    16780.051 
   24600    8479.7063    8529.6874    86538.631    88105.336    75.822481    75.822481    75.822481    435907.14   -7153.3858    16841.269 
   24700    8451.9708    8516.9162    89029.622    87963.648     75.77989     75.77989     75.77989    435172.97   -7198.8203     16646.13 
   24800    8463.4366    8508.9499    89955.048    88391.379    75.647969    75.647969    75.647969    432904.22   -7285.7258    16558.513 
   24900    8421.9072    8494.7296    89234.432     88504.23     75.77534     75.77534     75.77534    435094.59   -7188.4978    16617.638 
   25000    8456.5711    8488.1496    88070.223    88504.352    75.694361    75.694361    75.694361    433701.15   -7289.2654    16466.236 
   25100    8467.7367    8486.8694    89609.583    88514.389    75.633737    75.633737    75.633737    432659.94   -7196.2038     16580.94 
   25200    8407.8834     8467.028    87230.214    88581.771    75.797697    75.797697    75.797697    435479.81   -7245.2615    16463.491 
   25300    8338.6927    8449.2753    83687.233    88292.394    75.739604    75.739604    75.739604    434479.29   -7267.9181    16295.631 
   25400    8401.3413      8433.94    87904.982    88052.885    75.727523    75.727523    75.727523    434271.42    -7278.926    16263.748 
   25500    8398.3565    8428.7603    86278.473    87753.844    75.655897    75.655897    75.655897    433040.34   -7279.1424    16381.789 
   25600    8374.0274    8418.1924    85254.075    87625.389    75.703938    75.703938    75.703938     433865.8   -7359.8845    16221.229 
   25700    8398.5789    8412.8532    85731.858    87295.612    75.635635    75.635635    75.635635    432692.51   -7489.2666    16194.621 
   25800    8352.1391    8401.7234    85417.574    86841.865    75.646288    75.646288    75.646288    432875.35   -7394.3879    16177.122 
   25900    8355.1013    8395.0428    87697.729    86688.195    75.654059    75.654059    75.654059    433008.78   -7386.6289    16167.269 
   26000    8346.1474    8384.0005    87673.206    86648.493     75.61328     75.61328     75.61328    432308.95   -7391.9844    16071.247 
   26100    8313.8196    8368.6088    89911.522    86678.687    75.467105    75.467105    75.467105    429806.59   -7442.9532    16040.167 
   26200    8269.7903    8354.7994    84637.356    86419.401    75.586478    75.586478    75.586478     431849.4   -7508.6155     15743.71 
   26300      8198.24    8340.7542    88115.118    86862.189     75.59802     75.59802     75.59802    432047.27   -7465.9352    15687.999 
   26400    8282.7667    8328.8967    86757.958    86747.487    75.707875    75.707875    75.707875    433933.48   -7409.0216    15959.213 
   26500    8213.9611    8310.4572    84806.216    86600.261    75.686278    75.686278    75.686278    433562.23   -7388.5631    15778.244 
   26600    8236.9341    8296.7478    85374.321    86612.286    75.581502    75.581502    75.581502    431764.12    -7561.742    15741.464 
   26700    8210.8743    8277.9774    87199.295    86759.029    75.604777    75.604777    75.604777    432163.13   -7387.2483    15824.582 
   26800    8217.1197    8264.4754    86416.209    86858.893    75.527069    75.527069    75.527069    430831.94   -7429.0485     15791.86 
   26900    8209.8036    8249.9457    84258.024    86514.922    75.595485    75.595485    75.595485    432003.81   -7479.8023    15674.081 
   27000    8218.6744    8237.1984    86603.126    86407.914    75.523055    75.523055    75.523055    430763.26   -7521.0932    15705.315 
   27100    8194.5059     8225.267    87954.855    86212.248    75.539646    75.539646    75.539646    431047.21   -7571.2627    15544.718 
   27200    8212.3234    8219.5203    85304.383     86278.95    75.455627    75.455627    75.455627    429610.51   -7637.3178    15476.064 
   27300    8132.6159    8212.9579    86773.533    86144.792    75.432618    75.432618    75.432618    429217.63   -7670.8869    15372.177 
   27400    8132.8991    8197.9711    84208.271    85889.823    75.479237    75.479237    75.479237    430013.92   -7632.5821    15407.198 
   27500    8116.2726    8188.2023    83773.493    85786.551    75.381799    75.381799    75.381799    428350.71   -7790.8902    15090.184 
   27600    8108.7995    8175.3888    86329.329    85882.052    75.414294    75.414294    75.414294     428904.9   -7683.4717    15261.766 
   27700    8148.0141    8169.1028    86730.027    85835.125    75.402288    75.402288    75.402288    428700.08   -7718.6414    15248.235 
   27800    8111.9769    8158.5885     83252.71    85518.775    75.458354    75.458354    75.458354    429657.09   -7624.5204    15291.996 
   27900    8165.4261    8154.1508    84266.693    85519.642    75.413966    75.413966    75.413966     428899.3   -7750.3752    15255.678 
   28000    8044.6176    8136.7451    87143.749    85573.704    75.424008    75.424008    75.424008    429070.67   -7746.2303    15046.656 
   28100      8099.98    8127.2925    85288.771    85307.096    75.473245    75.473245    75.473245    429911.51   -7564.0953    15268.196 
   28200    8060.4845    8112.1086    85159.095    85292.567    75.407413    75.407413    75.407413    428787.51   -7801.6863     14971.88 
   28300    8056.5901     8104.506    87350.826    85350.296     75.40901     75.40901     75.40901    428814.75    -7692.287    15074.698 
   28400    8022.0225    8093.4184    86149.329    85544.402    75.388381    75.388381    75.388381    428462.93   -7636.5356    15019.161 
   28500     8119.832    8093.7743    85530.588    85720.112    75.398626    75.398626    75.398626    428637.63   -7823.7138    15040.521 
   28600    8020.7204    8084.9664    83176.088    85404.788    75.413815    75.413815    75.413815    428896.72   -7830.7823    14796.245 
   28700    7995.4145    8069.7064    86257.512    85357.536    75.338304    75.338304    75.338304    427609.67   -7722.9026     14869.45 
   28800    7982.1247    8056.7212    80113.506    85043.616    75.427904    75.427904    75.427904    429137.15   -7835.9179    14777.582 
   28900    7910.2931    8031.2079    81992.767    84816.223    75.398289    75.398289    75.398289    428631.88   -7898.4987    14557.037 
   29000    7902.2169    8016.9679    83558.195    84457.668    75.272916    75.272916    75.272916    426497.24   -7898.5563    14515.546 
   29100    7944.8885    8001.4587     85297.32    84458.523    75.349551    75.349551    75.349551     427801.2   -7941.8248    14619.941 
   29200    7976.9705    7993.1073    84101.536    84352.767      75.2552      75.2552      75.2552    426196.17    -7910.454    14591.118 
   29300    7974.4658    7984.8949    86187.836    84236.468    75.330985    75.330985    75.330985    427485.06   -7862.5081     14620.71 
   29400     7886.314     7971.324    85645.273    84186.062    75.296357    75.296357    75.296357    426895.81   -7906.8699    14379.143 
   29500     7906.734    7950.0142    85761.615    84209.165    75.259539    75.259539    75.259539     426269.9   -7881.5079    14428.142 
   29600     7872.159    7935.1581    84671.208    84358.677    75.279417    75.279417    75.279417    426607.75   -8016.8847    14158.119 
   29700    7892.1281    7924.8294     85286.16    84261.541    75.259701    75.259701    75.259701    426272.64   -7887.3817    14422.477 
   29800    7855.5922    7912.1762    82627.422    84512.933    75.329318    75.329318    75.329318    427456.68   -7877.4624    14427.404 
   29900    7849.4196    7906.0889    84737.204    84787.377    75.284728    75.284728    75.284728    426698.04   -7996.9488    14154.442 
   30000     7873.213    7903.1885    82495.074    84681.065    75.326615    75.326615    75.326615    427410.66   -7958.9462    14232.966 
   30100    7836.7298    7892.3726    83943.218    84545.654    75.242123    75.242123    75.242123    425974.04   -7990.9654    14082.957 
   30200    7782.4885    7872.9244    81775.328    84313.034    75.170308    75.170308    75.170308    424755.48   -8153.9501    13834.194 
   30300    7790.4347    7854.5213    83434.936    84037.744     75.22858     75.22858     75.22858    425744.06   -8096.1117    13962.714 
   30400    7822.9487    7848.1848    85635.475    84036.764    75.200728    75.200728    75.200728    425271.36   -7982.5994    14123.548 
   30500    7756.8836    7833.1997      82353.8    83695.983    75.149782    75.149782    75.149782    424407.63   -8131.0585    13806.043 
   30600    7742.0125    7820.1851    84673.518    83696.213    75.119226    75.119226    75.119226    423890.14   -8060.6868    13876.201 
   30700    7688.5332    7799.8256    86607.973    83828.395    75.127409    75.127409    75.127409    424028.68   -8075.6831    13800.079 
   30800    7746.0743    7788.8738    80849.963    83650.649     75.09616     75.09616     75.09616    423499.78   -8289.5526    13561.344 
   30900    7714.2283    7775.3547    79325.727    83109.501    75.008474    75.008474    75.008474    422018.01   -8266.2828     13532.55 
   31000     7733.056     7761.339    84967.805    83356.774    75.109134    75.109134    75.109134    423719.31   -8025.8016    13831.759 
   31100    7731.7039    7750.8364    83732.884    83335.741    75.232851    75.232851    75.232851    425816.58   -8152.1429    13741.213 
   31200     7667.733    7739.3608    82900.253    83448.233    75.186936    75.186936    75.186936    425037.41   -8209.6668    13433.905 
   31300    7651.6996    7725.4873    83370.136    83441.753     75.10771     75.10771     75.10771    423695.22   -8213.9223    13418.218 
   31400    7722.9932    7715.4918    82258.092    83104.015    75.156671    75.156671    75.156671    424524.35   -8140.5334    13589.676 
   31500    7629.0069    7702.7041    81750.729    83043.708    75.087042    75.087042    75.087042    423345.53   -8241.0355    13307.606 
   31600    7649.3244    7693.4353    82330.802    82809.436    75.151244    75.151244    75.151244     424432.4   -8264.4985    13458.026 
   31700    7695.9673    7694.1787    85852.095    82733.849    75.049493    75.049493    75.049493    422710.75   -8240.8747     13442.73 
   31800    7555.0287    7675.0741    82919.654    82940.818    75.038166    75.038166    75.038166    422519.37   -8198.2837    13219.643 
   31900    7611.9285    7664.8442    87429.653     83751.21    75.098704    75.098704    75.098704    423542.82   -8352.9693    13194.737 
   32000    7543.5326    7645.8918    81725.295    83426.959    75.054801    75.054801    75.054801    422800.43   -8347.4951    12978.104 
   32100    7565.4821    7629.2696    83472.224    83400.893    75.069542    75.069542    75.069542    423049.61   -8211.5634    13217.102 
   32200    7576.8404    7620.1804    82593.104    83370.178    74.967568    74.967568    74.967568    421327.95   -8342.4334    13112.342 
   32300    7618.7895    7616.8894    84038.689    83437.034    74.945835    74.945835    74.945835    420961.62   -8398.8093    13099.743 
   32400    7527.3833    7597.3284    84759.248    83687.149    75.008209    75.008209    75.008209    422013.54   -8289.2843    13079.898 
   32500     7597.258    7594.1535     84936.95    84005.771    74.925399    74.925399    74.925399    420617.36   -8358.0816    13120.387 
   32600    7528.3862    7582.0597    83546.188     84127.31    74.918909    74.918909    74.918909    420508.06   -8417.6573    12929.606 
   32700    7535.8798    7566.0509    83742.846    83916.385    74.955791    74.955791    74.955791    421129.42   -8538.9784    12803.057 
   32800    7505.1847    7561.0665    81973.871    83821.807    74.983823    74.983823    74.983823    421602.08   -8487.8729    12746.093 
   32900    7487.4429     7548.618    82981.446    83376.986    74.930589    74.930589    74.930589    420704.78   -8547.5118    12689.822 
   33000    7502.5587    7544.5206    82397.486    83444.205    74.872608    74.872608    74.872608    419728.91   -8514.2461    12782.243 
   33100     7456.147     7533.587    81398.744    83236.857    74.866815    74.866815    74.866815    419631.49   -8557.3701     12487.64 
   33200     7437.877    7519.6907    81344.263    83111.973    74.845067    74.845067    74.845067     419265.9   -8593.5442    12466.657 
   33300    7417.5725     7499.569    82998.009    83007.905    74.804905    74.804905    74.804905    418591.33   -8552.2814    12517.516 
   33400    7424.1026    7489.2409    78799.899     82411.97    74.975424    74.975424    74.975424    421460.42   -8535.1306    12519.747 
   33500    7420.2813    7471.5433    79005.275    81818.803    74.951905    74.951905    74.951905    421063.92   -8583.0279    12465.857 
   33600    7383.1813    7457.0228     80498.99    81514.083    74.865521    74.865521    74.865521    419609.73   -8525.0169    12398.092 
   33700    7346.0092    7438.0357    79718.099    81111.608    74.882648    74.882648    74.882648    419897.79   -8550.2729    12204.706 
   33800    7411.4824    7428.6655    84925.184     81406.74    74.702554    74.702554    74.702554    416875.47   -8462.6713    12501.282 
   33900    7390.7164    7418.9928     82160.23    81324.618    74.880297    74.880297    74.880297    419858.24   -8578.5651    12342.565 
   34000    7285.8651    7397.3235    79643.005     81049.17    74.835547    74.835547    74.835547    419105.93   -8670.3343    12134.107 
   34100    7376.8879    7389.3976    81936.877    81102.983    74.780071    74.780071    74.780071    418174.58   -8665.3695    12166.719 
   34200    7355.3633    7381.1462    81271.221    81095.679    74.641652    74.641652    74.641652    415856.73   -8775.1651    12018.797 
   34300    7341.6502     7373.554     82063.31    81002.209    74.716065    74.716065    74.716065    417101.72   -8653.2419    12166.526 
   34400    7374.3195    7368.5757    80366.071    81158.826    74.704303    74.704303    74.704303    416904.77   -8812.3773    12007.497 
   34500    7278.5164    7354.3992    82653.697    81523.668    74.632886    74.632886    74.632886    415710.22   -8666.8165    11953.259 
   34600    7293.5509    7345.4361    81408.823    81614.652    74.781496    74.781496    74.781496    418198.47   -8770.2233    11933.138 
   34700    7284.7954    7339.3147    82991.495    81941.991    74.824568    74.824568    74.824568    418921.51   -8728.5146    12034.304 
   34800    7283.6423    7326.5307    81577.181    81607.191    74.613779    74.613779    74.613779    415391.03   -8793.6781     11884.63 
   34900    7243.7868    7311.8378    84013.435    81792.511    74.734378    74.734378    74.734378    417408.48    -8625.726    11913.651 
   35000    7260.5921    7309.3105    82348.103    82063.021    74.702342    74.702342    74.702342    416871.92   -8711.8971    11810.288 
   35100      7139.81    7285.6027    82171.979    82086.532    74.695913    74.695913    74.695913    416764.31   -8677.2789    11611.684 
   35200    7228.9405    7272.9604    83265.576    82285.967    74.637826    74.637826    74.637826    415792.77   -8710.2131    11778.088 
   35300    7181.6344    7256.9588     80277.52    82107.388    74.651008    74.651008    74.651008    416013.13   -8802.6551    11572.216 
   35400    7196.6593    7239.1928    81805.617    82251.343    74.694409    74.694409    74.694409    416739.13   -8845.0642    11591.872 
   35500    7180.2265    7229.3638    82481.899    82234.163    74.704986    74.704986    74.704986    416916.19   -8779.9241    11462.645 
   35600    7122.0152    7212.2103    81171.289    82210.409    74.601858    74.601858    74.601858    415191.95   -8866.5478    11374.665 
   35700    7208.2585    7204.5566    78816.367    81792.897    74.611395    74.611395    74.611395    415351.22   -9006.9274    11363.805 
   35800    7081.0913    7184.3015    77822.737    81417.452    74.645186    74.645186    74.645186    415915.79   -8928.1983    11179.376 
   35900    7096.8859    7169.6114    82923.992    81308.508    74.695832    74.695832    74.695832    416762.96   -8739.1672    11427.406 
   36000    7080.6067    7151.6128    79940.541    81067.752    74.590105    74.590105    74.590105    414995.76    -8947.347    11194.629 
   36100    7084.7821      7146.11     78907.61    80741.315    74.573619    74.573619    74.573619    414720.65   -9063.6201    11049.249 
   36200     7076.867    7130.9027    79652.759    80380.033    74.543166    74.543166    74.543166    414212.79   -9060.0404    11020.812 
   36300    7098.4824    7122.5875    82734.984    80625.779    74.503376    74.503376    74.503376    413549.85    -9026.914    11073.202 
   36400    7031.2115    7106.0427      81647.2    80609.938    74.560207    74.560207    74.560207    414496.93   -9028.7712    10917.718 
   36500    7048.1209    7092.8321    81857.823     80547.53    74.442472    74.442472    74.442472    412536.48   -9064.6065    10957.091 
   36600    7077.4339     7088.374    76919.432    80122.345    74.520974    74.520974    74.520974    413842.96   -9089.7371    10884.874 
   36700    6997.1597    7067.2641     78931.93    80133.901    74.570646    74.570646    74.570646    414671.04   -9129.3847    10785.312 
   36800    7005.1157    7059.6666    82136.669    80565.294    74.447369    74.447369    74.447369     412617.9   -8963.4722    10904.152 
   36900    7017.1368    7051.6917    78409.562    80113.851     74.42348     74.42348     74.42348    412220.82   -9116.5633    10759.442 
   37000    7014.4165    7045.0726    81293.102    80249.107    74.405824    74.405824    74.405824    411927.51   -9252.5142    10607.587 
   37100    6991.5106    7035.7455    78108.066    80169.153    74.447648    74.447648    74.447648    412622.53   -9182.3621    10658.605 
   37200    6985.8962    7026.6484    79519.086    80155.785    74.461268    74.461268    74.461268    412849.05   -9120.2933    10691.304 
   37300    6973.9706    7014.1972    76701.259    79552.413    74.454129    74.454129    74.454129     412730.3   -9114.1588    10720.204 
   37400    6936.1287     7004.689    82220.592    79609.752    74.322005    74.322005    74.322005    410536.95   -9203.9496    10498.005 
   37500    6973.8211     6997.259    78235.775    79247.547    74.473426    74.473426    74.473426     413051.3   -9314.8759    10433.806 
   37600    6870.3565    6976.5512    77865.328    79342.137    74.319889    74.319889    74.319889    410501.89   -9250.0665    10289.715 
   37700    6919.9337    6968.8286    78222.805    79271.224    74.326715    74.326715    74.326715    410615.01   -9357.9223    10276.011 
   37800    6920.8649    6960.4036    78004.599    78858.017    74.384763    74.384763    74.384763    411577.81   -9368.7904    10264.761 
   37900    6858.2071    6944.5106     79209.17    78937.978    74.329267    74.329267    74.329267     410657.3   -9294.2959     10151.97 
   38000    6908.6843    6933.9374    81913.113    78999.979    74.315931    74.315931    74.315931     410436.3   -9244.3583    10332.929 
   38100    6906.8263    6925.4689    81503.337    79339.506    74.302576    74.302576    74.302576    410215.08   -9351.6641    10207.341 
   38200    6871.9962    6914.0789    78180.954    79205.693    74.232302    74.232302    74.232302    409052.25   -9472.9987    10049.176 
   38300    6802.8472    6896.9666    80391.374    79574.705    74.195629    74.195629    74.195629     408446.3   -9476.7958    9941.2202 
   38400    6857.3417    6889.0879    79990.732    79351.719    74.315634    74.315634    74.315634    410431.39   -9323.3739    10217.112 
   38500    6830.5066    6874.7565    78201.398    79348.281    74.360859    74.360859    74.360859    411181.15   -9360.9503    10019.901 
   38600    6776.1449    6865.3353     79319.47    79493.695     74.17329     74.17329     74.17329    408077.49   -9473.7167     9849.046 
   38700    6793.9653    6852.7385    78274.368    79498.852    74.108551    74.108551    74.108551     407009.9   -9364.2678    9981.3044 
   38800    6789.7592    6839.6279    79985.408    79696.932    74.284228    74.284228    74.284228    409911.25   -9337.7418    9899.8228 
   38900    6777.1685     6831.524    78474.725    79623.488    74.317383    74.317383    74.317383    410460.36    -9532.898    9685.6016 
   39000    6747.0103    6815.3566    79686.384    79400.815    74.245196    74.245196    74.245196    409265.44   -9599.8409     9600.489 
   39100    6720.9251    6796.7665    75957.268    78846.208     74.21632     74.21632     74.21632    408788.11   -9588.9512    9516.2307 
[...]
  367400    297.73061    300.30708   -2177.8744   -1934.0075    75.933775    75.933775    75.933775    437829.45   -24561.209   -23568.326 
  367500    297.67722    300.20063   -2293.9419   -1955.6534    75.938635    75.938635    75.938635    437913.52   -24555.965    -23566.44 
  367600     296.5272    299.69131   -1936.9929   -1968.9685    75.924104    75.924104    75.924104    437662.19   -24558.948   -23570.884 
  367700    297.11691    299.37257   -2288.5249    -2004.881    75.944278    75.944278    75.944278    438011.16   -24560.181   -23563.324 
  367800    300.88157    299.43134   -1946.6948   -1999.1391    75.922717    75.922717    75.922717     437638.2   -24567.137   -23566.426 
  367900    296.76893      299.063   -2081.1085    -2019.657    75.843817    75.843817    75.843817    436275.22   -24560.705   -23573.091 
  368000    298.74965    298.73074   -2100.5736    -2073.756    75.863964    75.863964    75.863964    436622.98   -24561.184   -23567.156 
  368100    301.35039    298.66325   -2092.3072   -2087.2037    75.944863    75.944863    75.944863    438021.28   -24561.115   -23555.659 
  368200     301.6223     298.5721   -2011.7944   -2091.4015    75.881136    75.881136    75.881136    436919.54   -24555.602   -23558.516 
  368300    299.26567    298.76904   -1833.4255   -2076.3238    75.912321    75.912321    75.912321    437458.46   -24556.473   -23563.771 
  368400    297.98518     298.7945   -1927.3009   -2051.2665    75.919887    75.919887    75.919887    437589.26   -24551.521   -23560.533 
  368500    299.79093    299.00587   -1898.5639   -2011.7287    75.901614    75.901614    75.901614    437273.37   -24559.813   -23559.574 
  368600    300.20025    299.37318   -2019.9626   -2020.0256     75.86275     75.86275     75.86275    436602.03   -24554.948   -23554.674 
  368700     300.9718    299.75867   -1854.9608   -1976.6692    75.927382    75.927382    75.927382    437718.88   -24558.294   -23558.735 
  368800    299.47328    299.61784   -2318.0413   -2013.8039    75.966567    75.966567    75.966567    438396.93   -24556.764    -23561.59 
  368900    299.05861    299.84681   -1804.7463   -1986.1676    75.941638    75.941638    75.941638    437965.47   -24553.881   -23560.787 
  369000     296.9401    299.66585   -2103.6578   -1986.4761    75.952135    75.952135    75.952135    438147.12    -24548.78   -23561.893 
  369100    299.13917    299.44473   -2011.7504   -1978.4204    76.026436    76.026436    76.026436    439434.24   -24562.576   -23569.088 
  369200    301.31377    299.41388   -1576.4913   -1934.8901    76.026352    76.026352    76.026352    439432.78   -24553.903   -23553.777 
  369300    299.22768    299.41008   -2016.9325   -1953.2408    75.990724    75.990724    75.990724    438815.28   -24556.477     -23559.2 
  369400    297.88193    299.39975   -2254.9784   -1986.0085    75.966014    75.966014    75.966014    438387.35   -24561.399   -23568.909 
  369500    299.37417    299.35808    -2236.485   -2019.8006    75.962364    75.962364    75.962364    438324.16   -24556.386   -23561.053 
  369600    298.35931    299.17398   -2147.8353   -2032.5879    75.911519    75.911519    75.911519    437444.59   -24560.688   -23567.529 
  369700    298.89764    298.96657   -2075.8598   -2054.6778     75.85404     75.85404     75.85404    436451.67   -24557.572   -23561.695 
  369800    300.67248    299.08649   -2274.8519   -2050.3589    75.885804    75.885804    75.885804    437000.19   -24554.901   -23556.164 
  369900    298.24568    299.00519   -2104.1508   -2080.2993    75.940448    75.940448    75.940448    437944.89   -24553.612   -23562.863 
  370000    301.15056    299.42624   -1892.8883   -2059.2224    75.978187    75.978187    75.978187    438598.13   -24552.792   -23553.784 
  370100    298.00975     299.3133   -2274.3149   -2085.4788    75.960162    75.960162    75.960162    438286.05   -24553.056   -23561.453 
  370200    299.21378     299.1033   -2012.4105   -2129.0707    75.949427    75.949427    75.949427    438100.25   -24549.354   -23560.726 
  370300    298.98281    299.07881   -2085.9817   -2135.9757    75.898625    75.898625    75.898625    437221.71   -24553.134   -23554.917 
  370400    301.77971    299.46859   -1853.7432   -2095.8522    75.881611    75.881611    75.881611    436927.75   -24555.947   -23557.479 
  370500    299.72129     299.5033   -1890.1972   -2061.2234    75.861944    75.861944    75.861944    436588.11   -24555.409   -23565.741 
  370600    298.55625    299.52299    -2085.774   -2055.0172    75.886033    75.886033    75.886033    437004.14   -24556.236   -23566.762 
  370700     299.8891    299.62214   -1709.1642   -2018.3477    75.897643    75.897643    75.897643    437204.75   -24558.153   -23567.403 
  370800     298.6807    299.42296   -2156.2018   -2006.4827    75.886724    75.886724    75.886724    437016.07   -24552.716   -23559.839 
  370900    299.39286    299.53768   -2216.5223   -2017.7198    75.865003    75.865003    75.865003    436640.92   -24560.122    -23567.99 
  371000    298.07145    299.22977   -2076.5585   -2036.0868     75.87741     75.87741     75.87741    436855.19    -24557.62   -23561.835 
  371100     300.7017    299.49896   -1999.5623   -2008.6116    75.876723    75.876723    75.876723    436843.32   -24558.421   -23564.379 
  371200    298.77024    299.45461   -1946.1813   -2001.9886    75.920227    75.920227    75.920227    437595.14   -24552.434   -23554.379 
  371300    299.70449    299.52678   -2053.3395   -1998.7244    75.971295    75.971295    75.971295    438478.78   -24554.318   -23560.256 
  371400    301.84142    299.53295   -2072.7673   -2020.6268    76.004091    76.004091    76.004091    439046.89   -24557.098   -23555.295 
  371500    301.54926    299.71575   -2141.2094   -2045.7281    75.974096    75.974096    75.974096    438527.29   -24552.047   -23550.927 
  371600    303.52538    300.21266   -2185.7717   -2055.7278    75.951767    75.951767    75.951767    438140.75   -24559.262   -23555.389 
  371700    301.43963    300.36771   -2332.9025   -2118.1017     75.94986     75.94986     75.94986    438107.75   -24557.943   -23559.712 
  371800    300.64509    300.56415   -2089.0228   -2111.3838    75.912262    75.912262    75.912262    437457.42   -24555.679   -23561.574 
  371900    298.20536     300.4454    -1922.423   -2081.9738    75.936432    75.936432    75.936432    437875.41    -24554.68   -23562.321 
  372000    299.98704    300.63696   -1842.3065   -2058.5486    75.921539    75.921539    75.921539    437617.83   -24556.438   -23560.605 
  372100    300.94078    300.66087   -2366.8205   -2095.2744    75.934009    75.934009    75.934009     437833.5   -24553.566   -23560.073 
  372200    298.80348    300.66419   -2235.7363   -2124.2299    75.898534    75.898534    75.898534    437220.14   -24557.999   -23565.964 
  372300    299.75002    300.66875   -1952.4555   -2114.1416    75.869161    75.869161    75.869161    436712.72   -24556.809   -23565.373 
  372400    302.26676    300.71128   -1918.1404   -2098.6789    75.907749    75.907749    75.907749    437379.41   -24559.646   -23559.329 
  372500    298.90575    300.44693   -1731.7643   -2057.7344    75.953999    75.953999    75.953999    438179.39   -24555.172   -23561.968 
  372600    301.14534    300.20892   -1747.4732   -2013.9045    75.937164    75.937164    75.937164    437888.08   -24561.891    -23564.24 
  372700    302.14019    300.27898   -2174.6531   -1998.0796    75.961585    75.961585    75.961585    438310.67   -24562.764   -23561.164 
  372800    298.41209    300.05568   -2074.4084   -1996.6181     75.94447     75.94447     75.94447    438014.47   -24559.749   -23569.514 
  372900    299.34735    300.16988   -2406.2502   -2045.0008    75.959515    75.959515    75.959515    438274.86   -24554.803    -23564.95 
  373000    300.09144    300.18032   -1819.8321   -2042.7534    75.942311    75.942311    75.942311    437977.12    -24557.52   -23561.889 
  373100    302.05467    300.29171   -1867.1177   -1992.7831    75.888097    75.888097    75.888097     437039.8   -24556.939   -23563.622 
  373200    301.20855    300.53221   -1899.6854    -1959.178    75.924923    75.924923    75.924923    437676.35   -24562.432   -23564.275 
  373300    301.58372    300.71558   -1906.1579   -1954.5483    75.890204    75.890204    75.890204     437076.2    -24559.45   -23562.245 
  373400    302.69581    300.75849   -1824.0262   -1945.1368    75.898129    75.898129    75.898129    437213.14   -24556.746   -23554.347 
  373500     301.7843    301.04634   -1890.5102   -1961.0114    75.900443    75.900443    75.900443    437253.13   -24563.462   -23561.559 
  373600    300.38133    300.96994   -1934.8859   -1979.7527    75.892029    75.892029    75.892029    437107.74   -24554.819   -23554.543 
  373700    298.50957    300.60688    -2229.695   -1985.2569    75.907839    75.907839    75.907839    437380.97   -24550.701    -23560.91 
  373800     300.2633      300.792   -1850.1318   -1962.8292    75.896548    75.896548    75.896548    437185.83   -24566.125   -23572.082 
  373900    297.76891    300.63416   -1917.9406   -1913.9983    75.940287    75.940287    75.940287    437942.11   -24554.945   -23560.826 
  374000     300.2222    300.64723   -2077.8552   -1939.8006    75.979358    75.979358    75.979358    438618.41    -24562.66   -23565.193 
  374100    300.45613    300.48738   -2113.1257   -1964.4014    75.975178    75.975178    75.975178    438546.03    -24553.04   -23561.127 
  374200    299.88619    300.35514   -2230.8106   -1997.5139    76.013934    76.013934    76.013934    439217.49   -24556.121   -23563.937 
  374300     299.1032    300.10709   -2213.2852   -2028.2266    75.936571    75.936571    75.936571    437877.82    -24558.25   -23567.126 
  374400    297.89538    299.62705    -1914.932   -2037.3172     75.86549     75.86549     75.86549    436649.34    -24560.98   -23572.193 
  374500    298.06234    299.25485   -2547.1685   -2102.9831    75.917409    75.917409    75.917409    437546.42   -24559.844   -23569.422 
  374600    299.17521    299.13424   -2039.2133   -2113.4158    75.938491    75.938491    75.938491    437911.03   -24556.199     -23562.1 
  374700      297.525    299.03579   -2233.8786   -2113.8342    75.860921    75.860921    75.860921    436570.45   -24559.137   -23564.241 
  374800    298.97176    298.90663   -2098.5959   -2138.6806    75.866422    75.866422    75.866422    436665.43   -24559.376   -23564.954 
  374900     297.2387    298.85361   -1911.3875   -2138.0253    75.885143    75.885143    75.885143    436988.76   -24556.066    -23572.79 
  375000    299.75228    298.80662   -2081.4429    -2138.384    75.893027    75.893027    75.893027    437124.98     -24560.1   -23563.005 
  375100    302.14545    298.97555   -1669.9113   -2094.0626    75.878027    75.878027    75.878027    436865.84   -24557.917   -23560.424 
  375200    302.53526    299.24046   -1926.3034   -2063.6119    75.948451    75.948451    75.948451    438083.36   -24558.749   -23555.565 
  375300    298.31393    299.16153   -1951.5613   -2037.4395    75.956805    75.956805    75.956805    438227.94   -24553.666   -23565.183 
  375400    298.24768    299.19676   -2030.1121   -2048.9575    75.901716    75.901716    75.901716    437275.13   -24557.206   -23569.052 
  375500    302.64341    299.65487   -1974.6015   -1991.7008    75.921258    75.921258    75.921258    437612.96   -24560.812   -23561.428 
  375600    301.40789    299.87814   -1764.9433   -1964.2738    75.902735    75.902735    75.902735    437292.75   -24558.185   -23562.217 
  375700    300.05394    300.13103   -2013.8103    -1942.267    75.931449    75.931449    75.931449    437789.23   -24558.606   -23562.319 
  375800     298.7002    300.10387   -2015.7303   -1933.9804    75.922494    75.922494    75.922494    437634.34   -24551.763     -23559.3 
  375900    300.43773    300.42378    -2044.334    -1947.275    75.950029    75.950029    75.950029    438110.66    -24553.73   -23560.618 
  376000    302.07369    300.65592   -1945.2016   -1933.6509    75.965065    75.965065    75.965065    438370.92   -24557.058   -23561.651 
  376100    300.52453    300.49382   -2297.2662   -1996.3864    75.959431    75.959431    75.959431     438273.4   -24554.099     -23561.7 
  376200    298.53446    300.09374   -2308.8035   -2034.6364    75.950249    75.950249    75.950249    438114.48   -24552.825   -23562.992 
  376300    299.88799    300.25115   -1800.3444   -2019.5147    75.951462    75.951462    75.951462    438135.47   -24552.637    -23561.53 
  376400    300.52177    300.47856   -1718.0804   -1988.3115    75.976423    75.976423    75.976423    438567.59   -24553.783   -23560.184 
  376500    300.60537    300.27476   -2067.6435   -1997.6158    75.975632    75.975632    75.975632    438553.88   -24558.228   -23560.284 
  376600    299.50589    300.08456     -1750.48   -1996.1694    75.977277    75.977277    75.977277    438582.37    -24554.79   -23562.945 
  376700    299.58737     300.0379   -2117.7781   -2006.5662    75.964052    75.964052    75.964052    438353.38   -24555.517   -23564.056 
  376800    302.45052    300.41293   -1954.2461   -2000.4178    75.898008    75.898008    75.898008    437211.05   -24559.676   -23561.538 
  376900    300.28198    300.39736   -2222.4872   -2018.2331    75.872728    75.872728    75.872728    436774.32   -24560.993   -23563.887 
  377000    300.02169    300.19216    -1972.991    -2021.012    75.850377    75.850377    75.850377    436388.44   -24553.537   -23564.219 
  377100    301.36219    300.27592   -1867.5947   -1978.0449    75.857326    75.857326    75.857326    436508.38   -24563.036   -23565.562 
  377200    301.04089    300.52657   -2106.4939   -1957.8139    75.853645    75.853645    75.853645    436444.84   -24560.905   -23565.662 
  377300    299.98624    300.53639   -2002.3297   -1978.0125    75.907254    75.907254    75.907254    437370.86   -24557.225   -23558.197 
  377400    299.20837    300.40505    -2226.057   -2028.8101     75.92125     75.92125     75.92125    437612.84   -24559.373   -23561.915 
  377500    300.36596    300.38111   -2032.0111   -2025.2469    75.870849    75.870849    75.870849    436741.87    -24553.83   -23561.998 
  377600    302.51104    300.68163   -1411.6958   -1991.3685    75.867654    75.867654    75.867654     436686.7   -24560.682   -23564.059 
  377700    299.35416     300.6583    -1946.561   -1974.2468    75.859227    75.859227    75.859227     436541.2    -24560.73    -23566.51 
  377800    300.08113    300.42137   -1951.8026   -1974.0024    75.899777    75.899777    75.899777    437241.62   -24559.247   -23561.017 
  377900    301.37285    300.53045   -2170.9024   -1968.8439    75.923864    75.923864    75.923864    437658.03   -24559.128   -23557.671 
  378000    298.43837    300.37212   -2065.3463   -1978.0794    75.964039    75.964039    75.964039    438353.16   -24557.422   -23563.082 
  378100    298.69114    300.10502   -2541.4967   -2045.4696    76.026904    76.026904    76.026904    439442.35   -24555.657   -23563.919 
  378200    299.99891    300.00082   -1998.6639   -2034.6866    76.024354    76.024354    76.024354    439398.15   -24557.997   -23564.407 
  378300    299.04503     299.9067   -1909.6045   -2025.4141    75.982605    75.982605    75.982605    438674.64    -24551.27   -23557.276 
  378400    298.90931    299.87679   -2230.7821   -2025.8866    75.968876    75.968876    75.968876    438436.91   -24551.878   -23558.874 
  378500    301.43558    299.98375   -1940.8801   -2016.7735    75.953502    75.953502    75.953502    438170.77   -24552.491   -23554.784 
  378600    300.09299    299.74195   -2190.9744   -2094.7014    76.021856    76.021856    76.021856    439354.83   -24556.821   -23559.372 
  378700    304.41767     300.2483   -2131.9548   -2113.2408    76.011863    76.011863    76.011863    439181.59   -24561.885    -23555.19 
  378800    301.45774    300.38596   -2085.0411   -2126.5646    75.989779    75.989779    75.989779    438798.91   -24559.216    -23561.15 
  378900     304.1493    300.66361   -2047.4368   -2114.2181    75.964707    75.964707    75.964707    438364.72   -24557.248   -23558.301 
  379000    300.14908    300.83468   -1956.8014   -2103.3636    75.974111    75.974111    75.974111    438527.55   -24557.701   -23563.509 
  379100    301.24081    301.08964   -2052.7938   -2054.4933    75.968471    75.968471    75.968471    438429.89   -24560.089   -23562.442 
  379200     299.6804    301.05779   -1923.7442   -2047.0013    75.946236    75.946236    75.946236    438045.04   -24556.162   -23559.726 
  379300    300.58013     301.2113   -1947.6591   -2050.8068    75.929202    75.929202    75.929202    437750.35   -24559.933   -23564.318 
  379400    297.65519    301.08589   -1950.5128   -2022.7799    75.944914    75.944914    75.944914    438022.16   -24561.997   -23567.737 
  379500    302.21178    301.16351   -2014.0334   -2030.0952    75.997281    75.997281    75.997281    438928.88   -24559.177   -23558.843 
  379600    300.80342    301.23455   -2360.0391   -2047.0017    76.044786    76.044786    76.044786    439752.52   -24554.838   -23557.405 
  379700    300.25588    300.81837   -1805.1709   -2014.3233    76.009225    76.009225    76.009225    439135.88   -24559.524   -23559.592 
  379800     303.0919    300.98179    -2026.992   -2008.5183    75.977362    75.977362    75.977362    438583.84   -24556.576   -23553.164 
  379900    299.77651    300.54451   -1751.9767   -1978.9723    75.952975    75.952975    75.952975    438161.66   -24555.465   -23562.902 
  380000    300.03794    300.53339   -1959.4748   -1979.2397    75.954729    75.954729    75.954729    438192.01   -24555.255    -23563.46 
  380100    299.29332    300.33865   -1784.3825   -1952.3985    75.948311    75.948311    75.948311    438080.94   -24551.956   -23561.164 
  380200    299.70784    300.34139   -2015.4483   -1961.5689    75.973504    75.973504    75.973504    438517.03   -24558.052   -23562.239 
  380300    300.00668    300.28405   -1940.8803   -1960.8911    75.962942    75.962942    75.962942    438334.17   -24557.029    -23560.09 
  380332    300.57894    300.57642    -2067.486   -1972.5884     75.97435     75.97435     75.97435    438531.68   -24556.282   -23558.272 
Loop time of 330.555 on 48 procs for 20000 steps with 16800 atoms

Pair  time (%) = 203.649 (61.6083)
Bond  time (%) = 2.12635 (0.643268)
Neigh time (%) = 0.766942 (0.232016)
Comm  time (%) = 99.6092 (30.1339)
Outpt time (%) = 0.518709 (0.156921)
Other time (%) = 23.8845 (7.22558)

Nlocal:    350 ave 388 max 315 min
Histogram: 3 4 5 6 9 3 9 3 3 3
Nghost:    1299.4 ave 1349 max 1229 min
Histogram: 1 3 4 1 8 11 3 7 2 8
Neighs:    18829.5 ave 22318 max 15493 min
Histogram: 2 3 5 9 7 8 2 5 5 2

Total # of neighbors = 903816
Ave neighs/atom = 53.7986
Ave special neighs/atom = 2.14286
Neighbor list builds = 301
Dangerous builds = 0

#########################################################################
clear
next a
next p
next q
next r
next s
next t
next v
jump in.EtOCSMethyl# EtOCSMethyl -- network connectivity scan -- with bulk modulus simulation

# trial parameter
variable a index 1.1 1.2 1.3 2.1 2.2 2.3 3.1 3.2 3.3 
# EtOCSMethyl precursor start moleculeID parameter
variable p index 1 1 1 1 1 1 1 1 1 
# EtOCSMethyl precursor end moleculeID parameter
variable q index 2000 2000 2000 2000 2000 2000 2000 2000 2000 
# free O start atomID parameter
variable r index 10001 10001 10001 10001 10001 10001 10001 10001 10001 
# free O end atomID parameter
variable s index 16800 16800 16800 17600 17600 17600 18400 18400 18400 
# porogen start moleculeID parameter
variable t index 2001 2001 2001 2001 2001 2001 2001 2001 2001 
# porogen end moleculeID parameter
variable v index 2000 2000 2000 2000 2000 2000 2000 2000 2000 

log log_$a.lammps
log log_1.3.lammps
