
#########################################################################
dimension 3
atom_style full

# bonded potentials
bond_style harmonic
angle_style harmonic
dihedral_style hybrid opls class2

boundary p p p
units metal
neighbor 2 bin
neigh_modify check yes

timestep 0.001

read_data data.EtOCSMethyl_2000_$a
read_data data.EtOCSMethyl_2000_1.1
  1 = max bonds/atom
  1 = max angles/atom
  1 = max dihedrals/atom
  orthogonal box = (-4 -4 -4) to (136 136 136)
  3 by 4 by 4 processor grid
  16800 atoms
  8000 bonds
  6000 angles
  4000 dihedrals
  2 = max # of 1-2 neighbors
  2 = max # of 1-3 neighbors
  2 = max # of 1-4 neighbors
  4 = max # of special neighbors

#########################################################################
# number of EtOCSMethyl precursors (referenced by moleculeID)
group precursors molecule <> $p $q
group precursors molecule <> 1 $q
group precursors molecule <> 1 2000
10000 atoms in group precursors

# number of free O atoms (referenced by atomID)
group freeO id <> $r $s
group freeO id <> 10001 $s
group freeO id <> 10001 16800
6800 atoms in group freeO

# number of porogen molecules (referenced by moleculeID)
group porogen molecule <> $t $v
group porogen molecule <> 2001 $v
group porogen molecule <> 2001 2000
0 atoms in group porogen

group active union precursors freeO porogen
16800 atoms in group active
group activematrix union precursors freeO
16800 atoms in group activematrix
group inactive subtract all active
0 atoms in group inactive
delete_atoms group inactive
Deleted 0 atoms, new total = 16800

#########################################################################
#soft potential to push the atoms apart
pair_style soft 3
pair_coeff	* * 0 500 3

thermo_style custom step temp tave press pave lx ly lz vol epair etotal

fix 1		active nvt 6000 6000 0.0100 drag 2.00
thermo		1000
run		20000
Memory usage per processor = 2.39587 Mbytes
Step Temp T_ave Press P_ave Lx Ly Lz Volume E_pair TotEng 
       0            0            0   -2.8414386   -2.8414386          140          140          140      2744000            0    11.848978 
    1000    5988.8067    2994.4033    4423.6644    2210.4115          140          140          140      2744000    152.18799    15374.908 
    2000    5985.5997    3991.4688     4041.587    2820.8033          140          140          140      2744000    100.11854    16360.046 
    3000    6002.5696     4494.244    4026.1915    3122.1504          140          140          140      2744000    90.664683    16845.043 
    4000     5981.929     4791.781      3819.96    3261.7123          140          140          140      2744000     72.53796    17047.996 
    5000     5977.352    4989.3762    3966.4692    3379.1718          140          140          140      2744000    71.913324    17098.683 
    6000    6022.9136    5137.0244      3821.77    3442.4001          140          140          140      2744000    49.371626    17117.313 
    7000    5976.5363    5241.9634    3527.9106    3453.0889          140          140          140      2744000    50.989069    17085.554 
    8000    5994.0784    5325.5317    3768.9887    3488.1889          140          140          140      2744000    61.493394    17062.756 
    9000    6000.9261    5393.0711    3716.7424    3511.0443          140          140          140      2744000    52.877466    17090.867 
   10000    5989.4359    5992.0147    3880.6778    3899.3962          140          140          140      2744000     47.73581    17125.347 
   11000    5995.2183    5992.6559    3704.8892    3827.5187          140          140          140      2744000    47.570327    17126.567 
   12000    5994.3235    5993.5283    3708.0426    3794.1642          140          140          140      2744000    34.077332    17082.213 
   13000    5996.4475    5992.9161    3533.3032    3744.8754          140          140          140      2744000    48.549184    17136.475 
   14000    6014.7708    5996.2002    3795.0911    3742.3885          140          140          140      2744000    31.795087    17163.722 
   15000    5995.2639    5997.9914    3580.6366    3703.8052          140          140          140      2744000    34.316687    17098.015 
   16000    5990.4114    5994.7412    3676.8953    3689.3177          140          140          140      2744000    31.902638    17054.267 
   17000    6021.2884    5999.2164    3655.9564    3702.1223          140          140          140      2744000    32.726916    17057.069 
   18000    6016.9671    6001.5053     3381.163    3663.3398          140          140          140      2744000    31.814186    17138.772 
   19000    5981.5695    5999.5696    3757.3714    3667.4027          140          140          140      2744000      43.1316    17134.748 
   20000    6016.1045    6002.2365    3528.5227    3632.1872          140          140          140      2744000    22.060682    17091.745 
Loop time of 41.7845 on 48 procs for 20000 steps with 16800 atoms

Pair  time (%) = 0.31397 (0.751403)
Bond  time (%) = 2.02438 (4.84482)
Neigh time (%) = 0.581536 (1.39175)
Comm  time (%) = 29.9587 (71.698)
Outpt time (%) = 0.0267986 (0.0641353)
Other time (%) = 8.87916 (21.2499)

Nlocal:    350 ave 433 max 290 min
Histogram: 1 2 6 13 14 7 3 1 0 1
Nghost:    345.542 ave 389 max 288 min
Histogram: 1 1 2 7 7 8 8 7 6 1
Neighs:    351.146 ave 549 max 243 min
Histogram: 2 6 9 14 9 7 0 0 0 1

Total # of neighbors = 16855
Ave neighs/atom = 1.00327
Ave special neighs/atom = 2.14286
Neighbor list builds = 1728
Dangerous builds = 275

thermo		1
minimize		1e-4 10000 10000
Memory usage per processor = 3.10014 Mbytes
Step Temp T_ave Press P_ave Lx Ly Lz Volume E_pair TotEng 
   20000    6016.1045    6002.2365    3528.5227    3632.1872          140          140          140      2744000    22.060682    17091.745 
   20001    6016.1045    6004.3251    3375.6796    3599.2662          140          140          140      2744000  0.053157077    16220.118 
   20002    6016.1045    6006.5032    4325.7029    3661.0322          140          140          140      2744000   0.70772837    15159.503 
   20003    6016.1045    6008.4689    4951.4656    3802.8485          140          140          140      2744000   0.72467246     14650.51 
   20004    6016.1045    6008.6023     5013.634    3924.7028          140          140          140      2744000  0.073035231     14524.67 
   20005    6016.1045    6010.6864    5201.4738    4086.7865          140          140          140      2744000    1.1161566    14241.392 
   20006    6016.1045    6013.2557    5153.7485    4234.4718          140          140          140      2744000  0.011036882    14192.872 
   20007    6016.1045    6012.7373    5287.5628    4397.6324          140          140          140      2744000    2.8758608    13961.515 
   20008    6016.1045     6012.651    5159.1221    4575.4284          140          140          140      2744000 0.0071280377    13936.323 
   20009    6016.1045    6016.1045    5299.1988    4729.6111          140          140          140      2744000    1.1527809    13813.026 
   20010    6016.1045    6016.1045    5229.3044    4899.6892          140          140          140      2744000 0.00014187572    13791.178 
   20011    6016.1045    6016.1045    5306.4695    5092.7682          140          140          140      2744000    2.8155774    13728.463 
   20012    6016.1045    6016.1045     5209.261     5181.124          140          140          140      2744000  0.060509188    13706.774 
   20013    6016.1045    6016.1045    5257.4931    5211.7268          140          140          140      2744000   0.35503898    13667.983 
   20014    6016.1045    6016.1045    5225.2425    5232.8876          140          140          140      2744000  0.017348601     13653.56 
   20015    6016.1045    6016.1045    5362.0781    5248.9481          140          140          140      2744000    2.9169961    13587.634 
   20016    6016.1045    6016.1045     5225.624    5256.1356          140          140          140      2744000   0.65198178    13548.331 
   20017    6016.1045    6016.1045    5195.9341    5246.9728          140          140          140      2744000  0.056494551     13519.56 
   20018    6016.1045    6016.1045    5191.1814    5250.1787          140          140          140      2744000  0.005275043    13507.328 
   20019    6016.1045    6016.1045    5253.0324     5245.562          140          140          140      2744000    2.1699269     13456.45 
   20020    6016.1045    6016.1045    5157.6433    5238.3959          140          140          140      2744000  0.029968225    13444.106 
   20021    6016.1045    6016.1045    5163.3584    5224.0848          140          140          140      2744000 0.0082104744    13435.247 
   20022    6016.1045    6016.1045    5192.3591    5222.3947          140          140          140      2744000   0.24444778    13413.003 
   20023    6016.1045    6016.1045    5166.1598    5213.2613          140          140          140      2744000  0.068591064      13402.8 
   20024    6016.1045    6016.1045     5158.379     5206.575          140          140          140      2744000 0.0099757846    13398.137 
   20025    6016.1045    6016.1045    5176.5473    5188.0219          140          140          140      2744000   0.42853717    13382.364 
   20026    6016.1045    6016.1045    5151.2258    5180.5821          140          140          140      2744000   0.08990248    13373.251 
   20027    6016.1045    6016.1045     5138.715    5174.8602          140          140          140      2744000 0.0040072608    13369.564 
   20028    6016.1045    6016.1045    5213.6624    5177.1083          140          140          140      2744000   0.85742879    13351.669 
   20029    6016.1045    6016.1045     5182.923    5170.0973          140          140          140      2744000   0.91854834    13338.651 
   20030    6016.1045    6016.1045    5137.8109    5168.1141          140          140          140      2744000   0.12665184    13323.991 
   20031    6016.1045    6016.1045    5137.2851    5165.5067          140          140          140      2744000   0.19642458    13317.507 
   20032    6016.1045    6016.1045    5130.0023    5159.2711          140          140          140      2744000  0.058021577    13313.901 
   20033    6016.1045    6016.1045    5120.5633    5154.7114          140          140          140      2744000 4.9069581e-05     13312.06 
   20034    6016.1045    6016.1045     5321.017    5170.9752          140          140          140      2744000    9.1914829    13302.773 
   20035    6016.1045    6016.1045    5347.6013    5188.0806          140          140          140      2744000    10.336209    13302.468 
   20036    6016.1045    6016.1045    5069.1719    5179.8752          140          140          140      2744000  0.017853723    13288.729 
   20037    6016.1045    6016.1045    5135.3339    5179.5371          140          140          140      2744000   0.23240263    13280.529 
   20038    6016.1045    6016.1045    5111.5488    5169.3258          140          140          140      2744000 0.0020893334    13279.732 
   20039    6016.1045    6016.1045    5133.0009    5164.3335          140          140          140      2744000   0.20654608     13274.02 
   20040    6016.1045    6016.1045     5124.059    5162.9584          140          140          140      2744000   0.20231227    13269.004 
   20041    6016.1045    6016.1045    5138.2607    5163.0559          140          140          140      2744000   0.42238838    13255.303 
   20042    6016.1045    6016.1045     5097.094    5159.7651          140          140          140      2744000 0.0051951598    13253.248 
   20043    6016.1045    6016.1045    5136.1088    5161.3196          140          140          140      2744000   0.17049145     13247.82 
   20044    6016.1045    6016.1045    5214.1543    5150.6334          140          140          140      2744000    2.0504971    13242.486 
   20045    6016.1045    6016.1045    5251.6239    5141.0356          140          140          140      2744000    2.2570727    13233.176 
   20046    6016.1045    6016.1045     5154.421    5149.5605          140          140          140      2744000    1.1917099    13221.875 
   20047    6016.1045    6016.1045    5058.2832    5141.8555          140          140          140      2744000 0.0073293998    13216.132 
   20048    6016.1045    6016.1045    5105.0833    5141.2089          140          140          140      2744000   0.18648915    13211.821 
   20049    6016.1045    6016.1045    5100.9481    5138.0036          140          140          140      2744000 0.0031779209    13211.201 
   20050    6016.1045    6016.1045    5092.5882    5134.8565          140          140          140      2744000  0.039864172    13208.209 
   20051    6016.1045    6016.1045    5109.2738    5131.9579          140          140          140      2744000   0.16101184    13205.354 
   20052    6016.1045    6016.1045    5164.1223    5138.6607          140          140          140      2744000    1.0361078    13201.763 
   20053    6016.1045    6016.1045    5112.1297    5136.2628          140          140          140      2744000   0.25473827    13199.777 
   20054    6016.1045    6016.1045    5081.1711    5122.9644          140          140          140      2744000  0.011056289    13198.546 
   20055    6016.1045    6016.1045    5094.8365    5107.2857          140          140          140      2744000  0.015783441    13196.422 
   20056    6016.1045    6016.1045    5105.2422    5102.3678          140          140          140      2744000  0.023560998    13195.147 
   20057    6016.1045    6016.1045    5122.9095    5108.8305          140          140          140      2744000    0.1407596    13193.145 
   20058    6016.1045    6016.1045    5111.6782    5109.4899          140          140          140      2744000    0.1457107    13192.178 
   20059    6016.1045    6016.1045    5080.1224    5107.4074          140          140          140      2744000 0.0066374414    13189.961 
   20060    6016.1045    6016.1045    5087.6413    5106.9127          140          140          140      2744000  0.013668456    13188.509 
   20061    6016.1045    6016.1045    5087.9988    5104.7852          140          140          140      2744000 5.8152949e-05    13188.088 
   20062    6016.1045    6016.1045     5099.022    5098.2752          140          140          140      2744000  0.056118584    13186.862 
   20063    6016.1045    6016.1045    5116.7808    5098.7403          140          140          140      2744000   0.23319693    13186.066 
   20064    6016.1045    6016.1045    5143.7166    5104.9948          140          140          140      2744000   0.71004786    13184.082 
   20065    6016.1045    6016.1045    5118.7431    5107.3855          140          140          140      2744000   0.76769877     13182.17 
   20066    6016.1045    6016.1045    5108.3897    5107.7002          140          140          140      2744000   0.61489634    13179.808 
   20067    6016.1045    6016.1045    5082.9939    5103.7087          140          140          140      2744000   0.21795893    13178.379 
   20068    6016.1045    6016.1045    5093.0719     5101.848          140          140          140      2744000   0.29785196    13176.854 
   20069    6016.1045    6016.1045    5078.0497    5101.6408          140          140          140      2744000 0.0042211447    13176.182 
   20070    6016.1045    6016.1045    5090.2646    5101.9031          140          140          140      2744000  0.011725257    13174.892 
   20071    6016.1045    6016.1045    5117.3579     5104.839          140          140          140      2744000   0.33710374    13173.732 
   20072    6016.1045    6016.1045    5108.7332    5105.8101          140          140          140      2744000  0.074760856    13172.935 
   20073    6016.1045    6016.1045    5102.6318    5104.3952          140          140          140      2744000  0.075146723    13171.987 
   20074    6016.1045    6016.1045    5093.4871    5099.3723          140          140          140      2744000  0.052490262    13171.554 
   20075    6016.1045    6016.1045    5081.3952    5095.6375          140          140          140      2744000 7.0927329e-06    13171.342 
   20076    6016.1045    6016.1045    5096.2188    5094.4204          140          140          140      2744000  0.050384658    13170.603 
   20077    6016.1045    6016.1045    5100.0491    5096.1259          140          140          140      2744000  0.053458275    13170.294 
   20078    6016.1045    6016.1045    5124.9472    5099.3135          140          140          140      2744000   0.30083361    13169.232 
   20079    6016.1045    6016.1045    5104.7956    5101.9881          140          140          140      2744000   0.08612382    13168.549 
   20080    6016.1045    6016.1045    5093.1563    5102.2772          140          140          140      2744000  0.040358367    13168.136 
   20081    6016.1045    6016.1045    5106.6347    5101.2049          140          140          140      2744000   0.21255951    13167.438 
   20082    6016.1045    6016.1045    5095.5247    5099.8841          140          140          140      2744000   0.14668159    13166.971 
   20083    6016.1045    6016.1045    5100.2569    5099.6466          140          140          140      2744000   0.23473711    13166.272 
   20084    6016.1045    6016.1045    5103.0077    5100.5986          140          140          140      2744000   0.21379458    13165.296 
   20085    6016.1045    6016.1045    5097.0701    5102.1661          140          140          140      2744000   0.23746955      13164.7 
   20086    6016.1045    6016.1045    5086.4811    5101.1923          140          140          140      2744000  0.078513188    13164.198 
   20087    6016.1045    6016.1045     5078.911    5099.0785          140          140          140      2744000 1.4308974e-05    13164.001 
   20088    6016.1045    6016.1045    5091.2436    5095.7082          140          140          140      2744000  0.022647845     13163.49 
   20089    6016.1045    6016.1045     5099.293    5095.1579          140          140          140      2744000   0.06246101    13163.124 
   20090    6016.1045    6016.1045    5115.6724    5097.4095          140          140          140      2744000   0.16388529    13162.429 
   20091    6016.1045    6016.1045    5101.8058    5096.9266          140          140          140      2744000  0.094595135    13162.017 
   20092    6016.1045    6016.1045     5097.549    5097.1291          140          140          140      2744000   0.07172456    13161.615 
   20093    6016.1045    6016.1045    5092.4224    5096.3456          140          140          140      2744000  0.053075443    13161.264 
   20094    6016.1045    6016.1045    5082.5059    5094.2954          140          140          140      2744000 0.00019434919    13161.034 
   20095    6016.1045    6016.1045    5088.8345    5093.4719          140          140          140      2744000 0.0038694297    13160.392 
   20096    6016.1045    6016.1045    5109.2755    5095.7513          140          140          140      2744000   0.15506059    13159.522 
   20097    6016.1045    6016.1045    5089.6256    5096.8228          140          140          140      2744000  0.014002308    13159.225 
   20098    6016.1045    6016.1045    5089.8947    5096.6879          140          140          140      2744000  0.045592165    13158.935 
   20099    6016.1045    6016.1045    5083.7972    5095.1383          140          140          140      2744000  0.012114601    13158.753 
   20100    6016.1045    6016.1045    5105.1784    5094.0889          140          140          140      2744000   0.25776202    13158.134 
   20101    6016.1045    6016.1045     5097.484    5093.6567          140          140          140      2744000   0.10641177    13157.693 
   20102    6016.1045    6016.1045    5099.9074    5093.8926          140          140          140      2744000   0.11635116    13157.367 
   20103    6016.1045    6016.1045    5100.5342    5094.7038          140          140          140      2744000  0.083559179    13156.995 
   20104    6016.1045    6016.1045    5093.3211    5095.7853          140          140          140      2744000  0.085529787    13156.414 
   20105    6016.1045    6016.1045    5089.4039    5095.8422          140          140          140      2744000  0.048125311    13156.171 
   20106    6016.1045    6016.1045    5090.3697    5093.9516          140          140          140      2744000   0.11293578    13155.858 
   20107    6016.1045    6016.1045     5087.625    5093.7516          140          140          140      2744000  0.014964431    13155.427 
   20108    6016.1045    6016.1045    5095.0691     5094.269          140          140          140      2744000   0.10066542    13154.891 
   20109    6016.1045    6016.1045    5085.6364    5094.4529          140          140          140      2744000  0.033308433    13154.523 
   20110    6016.1045    6016.1045    5097.8978    5093.7249          140          140          140      2744000   0.14624391    13154.017 
   20111    6016.1045    6016.1045    5086.2517    5092.6016          140          140          140      2744000  0.017173048    13153.643 
   20112    6016.1045    6016.1045    5086.5466    5091.2656          140          140          140      2744000  0.017520516    13153.029 
   20113    6016.1045    6016.1045    5088.6131    5090.0735          140          140          140      2744000   0.02507657    13152.515 
   20114    6016.1045    6016.1045    5097.8083    5090.5222          140          140          140      2744000      0.13352    13151.615 
   20115    6016.1045    6016.1045     5085.854    5090.1672          140          140          140      2744000  0.061495202    13151.254 
   20116    6016.1045    6016.1045    5088.1248    5089.9427          140          140          140      2744000   0.12097763    13150.643 
   20117    6016.1045    6016.1045    5083.7789    5089.5581          140          140          140      2744000  0.026063406    13150.219 
   20118    6016.1045    6016.1045    5098.0375    5089.8549          140          140          140      2744000   0.13852948    13149.666 
   20119    6016.1045    6016.1045    5090.6128    5090.3526          140          140          140      2744000  0.032331097    13149.239 
   20120    6016.1045    6016.1045    5084.1467    5088.9774          140          140          140      2744000 0.00047365248    13148.975 
   20121    6016.1045    6016.1045    5079.9908    5088.3514          140          140          140      2744000 0.00041724809    13148.614 
   20122    6016.1045    6016.1045    5085.5326      5088.25          140          140          140      2744000  0.044957067    13148.091 
   20123    6016.1045    6016.1045    5077.2179    5087.1104          140          140          140      2744000 0.0082011062    13147.861 
   20124    6016.1045    6016.1045    5086.8948    5086.0191          140          140          140      2744000  0.059176706     13147.47 
   20125    6016.1045    6016.1045    5087.1539    5086.1491          140          140          140      2744000  0.035502531    13147.332 
   20126    6016.1045    6016.1045    5093.7679    5086.7134          140          140          140      2744000   0.03494735    13147.148 
   20127    6016.1045    6016.1045    5102.7476    5088.6103          140          140          140      2744000   0.12219048    13146.772 
   20128    6016.1045    6016.1045    5097.8236    5088.5889          140          140          140      2744000  0.043133159    13146.362 
   20129    6016.1045    6016.1045    5089.7779    5088.5054          140          140          140      2744000   0.04818843      13146.1 
   20130    6016.1045    6016.1045    5081.9394    5088.2847          140          140          140      2744000 0.0062319577    13145.844 
   20131    6016.1045    6016.1045    5080.8301    5088.3686          140          140          140      2744000 0.0015270813    13145.565 
   20132    6016.1045    6016.1045    5090.1684    5088.8322          140          140          140      2744000  0.066119566    13145.332 
   20133    6016.1045    6016.1045     5088.221    5089.9325          140          140          140      2744000  0.035402477    13145.145 
   20134    6016.1045    6016.1045    5089.1273    5090.1557          140          140          140      2744000  0.016547384     13144.94 
   20135    6016.1045    6016.1045    5093.0029    5090.7406          140          140          140      2744000  0.048194257    13144.524 
   20136    6016.1045    6016.1045    5084.9991    5089.8637          140          140          140      2744000  0.014660215    13144.369 
   20137    6016.1045    6016.1045    5089.0612    5088.4951          140          140          140      2744000   0.03054704    13143.875 
   20138    6016.1045    6016.1045    5093.5042    5088.0632          140          140          140      2744000  0.059989075    13143.617 
   20139    6016.1045    6016.1045    5099.5246    5089.0378          140          140          140      2744000   0.11291173    13143.097 
   20140    6016.1045    6016.1045    5088.5643    5089.7003          140          140          140      2744000  0.034405176    13142.795 
   20141    6016.1045    6016.1045    5085.0992    5090.1272          140          140          140      2744000   0.03730449    13142.563 
   20142    6016.1045    6016.1045    5085.0714    5089.6175          140          140          140      2744000  0.012357989    13142.373 
   20143    6016.1045    6016.1045    5096.0411    5090.3995          140          140          140      2744000  0.056590957    13142.005 
   20144    6016.1045    6016.1045    5085.0394    5089.9907          140          140          140      2744000  0.025190063    13141.912 
   20145    6016.1045    6016.1045    5084.0363    5089.0941          140          140          140      2744000  0.011253148    13141.584 
   20146    6016.1045    6016.1045    5089.6687     5089.561          140          140          140      2744000   0.03069442    13141.326 
   20147    6016.1045    6016.1045    5088.7314    5089.5281          140          140          140      2744000  0.058351688    13141.187 
   20148    6016.1045    6016.1045    5085.6483    5088.7425          140          140          140      2744000   0.02243838    13140.954 
   20149    6016.1045    6016.1045    5087.5767    5087.5477          140          140          140      2744000  0.061306768    13140.776 
   20150    6016.1045    6016.1045    5083.7584    5087.0671          140          140          140      2744000  0.017467445     13140.61 
   20151    6016.1045    6016.1045    5092.0084     5087.758          140          140          140      2744000  0.054048887    13140.322 
   20152    6016.1045    6016.1045     5083.046    5087.5555          140          140          140      2744000  0.035825213    13140.229 
   20153    6016.1045    6016.1045    5087.3399    5086.6853          140          140          140      2744000   0.02894183    13139.995 
   20154    6016.1045    6016.1045    5085.2112    5086.7025          140          140          140      2744000  0.021820142    13139.819 
   20155    6016.1045    6016.1045    5086.3308     5086.932          140          140          140      2744000  0.036379757    13139.588 
   20156    6016.1045    6016.1045    5082.9224    5086.2573          140          140          140      2744000  0.022365455    13139.355 
   20157    6016.1045    6016.1045    5089.3181     5086.316          140          140          140      2744000  0.045471325    13139.102 
   20158    6016.1045    6016.1045    5083.6248    5086.1137          140          140          140      2744000  0.015053048    13138.943 
   20159    6016.1045    6016.1045    5088.1997     5086.176          140          140          140      2744000   0.03132759    13138.669 
   20160    6016.1045    6016.1045    5083.1255    5086.1127          140          140          140      2744000  0.019546039    13138.506 
   20161    6016.1045    6016.1045    5086.3749    5085.5493          140          140          140      2744000  0.028181616     13138.23 
   20162    6016.1045    6016.1045    5084.3631     5085.681          140          140          140      2744000   0.02502871      13138.1 
   20163    6016.1045    6016.1045    5088.9393    5085.8409          140          140          140      2744000  0.040336845    13137.867 
   20164    6016.1045    6016.1045    5079.9166    5085.3115          140          140          140      2744000 0.0058975706    13137.702 
   20165    6016.1045    6016.1045    5079.0315    5084.5816          140          140          140      2744000            0    13137.484 
   20166    6016.1045    6016.1045    5085.3045    5084.8198          140          140          140      2744000  0.019292102    13137.142 
   20167    6016.1045    6016.1045    5084.4356    5084.3315          140          140          140      2744000  0.011227363    13137.035 
   20168    6016.1045    6016.1045    5088.5506    5084.8241          140          140          140      2744000  0.035392382    13136.722 
   20169    6016.1045    6016.1045    5081.1913    5084.1233          140          140          140      2744000 0.0094430448    13136.665 
   20170    6016.1045    6016.1045    5078.8792    5083.6987          140          140          140      2744000 9.3136389e-05    13136.606 
   20171    6016.1045    6016.1045    5082.5368    5083.3149          140          140          140      2744000 0.00056648284    13136.403 
   20172    6016.1045    6016.1045    5090.1246     5083.891          140          140          140      2744000  0.020860074    13136.117 
   20173    6016.1045    6016.1045    5083.5012    5083.3472          140          140          140      2744000 0.00049462611    13136.076 
   20174    6016.1045    6016.1045    5080.9327    5083.4488          140          140          140      2744000 0.0060487785    13135.937 
   20175    6016.1045    6016.1045    5081.2079    5083.6665          140          140          140      2744000  0.027922628    13135.777 
   20176    6016.1045    6016.1045    5090.8366    5084.2197          140          140          140      2744000   0.10261154    13135.595 
   20177    6016.1045    6016.1045    5090.9352    5084.8696          140          140          140      2744000   0.10532535    13135.594 
   20178    6016.1045    6016.1045    5077.5851    5083.7731          140          140          140      2744000 5.6360541e-05    13135.363 
   20179    6016.1045    6016.1045    5084.2655    5084.0805          140          140          140      2744000 6.7809552e-05    13135.275 
   20180    6016.1045    6016.1045    5096.1049    5085.8031          140          140          140      2744000  0.027561462    13135.131 
   20181    6016.1045    6016.1045    5090.2009    5086.5695          140          140          140      2744000 0.0076432511    13135.086 
   20182    6016.1045    6016.1045    5088.0233    5086.3593          140          140          140      2744000  0.014631016    13135.045 
   20183    6016.1045    6016.1045    5086.0303    5086.6123          140          140          140      2744000 0.0081929263    13134.987 
   20184    6016.1045    6016.1045     5083.528    5086.8718          140          140          140      2744000  0.007636574    13134.952 
   20185    6016.1045    6016.1045    5091.2596    5087.8769          140          140          140      2744000  0.035443042    13134.844 
   20186    6016.1045    6016.1045    5089.7917    5087.7724          140          140          140      2744000  0.029050898    13134.733 
   20187    6016.1045    6016.1045    5090.2096    5087.6999          140          140          140      2744000  0.026275267    13134.626 
   20188    6016.1045    6016.1045    5087.2075    5088.6621          140          140          140      2744000  0.029943364    13134.562 
   20189    6016.1045    6016.1045    5090.4203    5089.2776          140          140          140      2744000  0.023183592     13134.47 
   20190    6016.1045    6016.1045    5085.8222    5088.2493          140          140          140      2744000 0.0091796794    13134.404 
   20191    6016.1045    6016.1045    5089.1181     5088.141          140          140          140      2744000  0.021424228    13134.333 
   20192    6016.1045    6016.1045    5087.4076    5088.0795          140          140          140      2744000   0.01667292    13134.273 
   20193    6016.1045    6016.1045    5087.3871    5088.2151          140          140          140      2744000  0.012564906    13134.199 
   20194    6016.1045    6016.1045    5086.5052    5088.5129          140          140          140      2744000  0.021507026    13134.131 
   20195    6016.1045    6016.1045    5085.3156    5087.9185          140          140          140      2744000  0.012853083    13134.052 
   20196    6016.1045    6016.1045    5088.7738    5087.8167          140          140          140      2744000    0.0266577    13133.975 
   20197    6016.1045    6016.1045    5087.6652    5087.5622          140          140          140      2744000  0.019497237    13133.882 
   20198    6016.1045    6016.1045    5088.8369    5087.7252          140          140          140      2744000  0.020439106    13133.796 
   20199    6016.1045    6016.1045    5086.6516    5087.3483          140          140          140      2744000  0.012370604    13133.707 
   20200    6016.1045    6016.1045    5088.1521    5087.5813          140          140          140      2744000  0.020120948    13133.628 
   20201    6016.1045    6016.1045    5087.1264    5087.3822          140          140          140      2744000  0.011525169    13133.534 
   20202    6016.1045    6016.1045    5083.9615    5087.0375          140          140          140      2744000  0.018183533    13133.409 
   20203    6016.1045    6016.1045    5083.0852    5086.6074          140          140          140      2744000  0.011450848    13133.338 
   20204    6016.1045    6016.1045    5084.1172    5086.3685          140          140          140      2744000  0.018215461    13133.248 
   20205    6016.1045    6016.1045     5082.842    5086.1212          140          140          140      2744000 0.0050987918    13133.176 
   20206    6016.1045    6016.1045    5088.6991    5086.1137          140          140          140      2744000  0.024795199    13133.072 
   20207    6016.1045    6016.1045    5083.4523    5085.6924          140          140          140      2744000 0.0059787818    13133.012 
   20208    6016.1045    6016.1045    5085.0249    5085.3112          140          140          140      2744000  0.013002935    13132.874 
   20209    6016.1045    6016.1045    5084.1507    5085.0611          140          140          140      2744000    0.0108666     13132.82 
   20210    6016.1045    6016.1045    5085.5042    5084.7963          140          140          140      2744000  0.021070972    13132.739 
   20211    6016.1045    6016.1045    5083.2599    5084.4097          140          140          140      2744000  0.012491746    13132.692 
   20212    6016.1045    6016.1045     5085.834    5084.5969          140          140          140      2744000  0.015061725    13132.615 
   20213    6016.1045    6016.1045    5085.8681    5084.8752          140          140          140      2744000  0.011523442    13132.557 
   20214    6016.1045    6016.1045    5087.2068    5085.1842          140          140          140      2744000  0.020646732    13132.468 
   20215    6016.1045    6016.1045    5086.0169    5085.5017          140          140          140      2744000  0.018898273    13132.399 
   20216    6016.1045    6016.1045    5086.4025     5085.272          140          140          140      2744000  0.015223527    13132.331 
   20217    6016.1045    6016.1045     5084.975    5085.4243          140          140          140      2744000  0.012334184    13132.272 
   20218    6016.1045    6016.1045     5084.167    5085.3385          140          140          140      2744000  0.009684469    13132.217 
   20219    6016.1045    6016.1045    5085.6876    5085.4922          140          140          140      2744000  0.018055866    13132.143 
   20220    6016.1045    6016.1045    5084.4192    5085.3837          140          140          140      2744000  0.012023644    13132.089 
   20221    6016.1045    6016.1045    5084.3114    5085.4889          140          140          140      2744000  0.013285491    13132.022 
   20222    6016.1045    6016.1045    5085.8419    5085.4897          140          140          140      2744000  0.010662181    13131.974 
   20223    6016.1045    6016.1045    5086.0745    5085.5103          140          140          140      2744000  0.013895332    13131.917 
   20224    6016.1045    6016.1045    5085.5589    5085.3455          140          140          140      2744000  0.012756921    13131.874 
   20225    6016.1045    6016.1045    5084.5374    5085.1975          140          140          140      2744000  0.016472871    13131.823 
   20226    6016.1045    6016.1045    5084.2725    5084.9845          140          140          140      2744000  0.013154656    13131.768 
   20227    6016.1045    6016.1045     5085.706    5085.0576          140          140          140      2744000  0.013814977    13131.712 
   20228    6016.1045    6016.1045    5085.0623    5085.1472          140          140          140      2744000  0.011238739    13131.667 
   20229    6016.1045    6016.1045    5085.3595    5085.1144          140          140          140      2744000  0.013977783    13131.617 
   20230    6016.1045    6016.1045    5084.8661    5085.1591          140          140          140      2744000  0.008511254    13131.571 
   20231    6016.1045    6016.1045    5086.9447    5085.4224          140          140          140      2744000  0.014233028    13131.518 
   20232    6016.1045    6016.1045    5083.9167    5085.2299          140          140          140      2744000 0.0081692077    13131.467 
   20233    6016.1045    6016.1045    5085.1806    5085.1405          140          140          140      2744000  0.011551204    13131.421 
   20234    6016.1045    6016.1045    5083.1888    5084.9035          140          140          140      2744000 0.0054230327    13131.355 
   20235    6016.1045    6016.1045    5082.7846    5084.7282          140          140          140      2744000 0.0092022521    13131.329 
   20236    6016.1045    6016.1045    5086.1153    5084.9125          140          140          140      2744000  0.013775701    13131.276 
   20237    6016.1045    6016.1045    5083.7836    5084.7202          140          140          140      2744000  0.007857147    13131.225 
   20238    6016.1045    6016.1045     5086.433    5084.8573          140          140          140      2744000  0.016910997    13131.177 
   20239    6016.1045    6016.1045    5085.0433    5084.8257          140          140          140      2744000   0.01087063    13131.134 
   20240    6016.1045    6016.1045    5083.8873    5084.7278          140          140          140      2744000 0.0077962199    13131.091 
   20241    6016.1045    6016.1045    5085.1152    5084.5448          140          140          140      2744000  0.012999369    13131.052 
   20242    6016.1045    6016.1045    5086.0364    5084.7568          140          140          140      2744000  0.011784099    13131.004 
   20243    6016.1045    6016.1045    5084.8702    5084.7258          140          140          140      2744000 0.0099788358    13130.965 
   20244    6016.1045    6016.1045    5086.1054    5085.0174          140          140          140      2744000    0.0092585    13130.928 
   20245    6016.1045    6016.1045    5085.4887    5085.2878          140          140          140      2744000  0.012433523    13130.892 
   20246    6016.1045    6016.1045    5084.4414    5085.1204          140          140          140      2744000  0.010948537    13130.846 
   20247    6016.1045    6016.1045    5084.3723    5085.1793          140          140          140      2744000 0.0084633851     13130.82 
   20248    6016.1045    6016.1045    5084.2253    5084.9586          140          140          140      2744000  0.007475755    13130.769 
   20249    6016.1045    6016.1045     5085.044    5084.9586          140          140          140      2744000 0.0083290343    13130.742 
   20250    6016.1045    6016.1045    5084.5174    5085.0216          140          140          140      2744000  0.014216771    13130.702 
   20251    6016.1045    6016.1045    5085.3484    5085.0449          140          140          140      2744000 0.0089215837    13130.655 
   20252    6016.1045    6016.1045    5085.5603    5084.9973          140          140          140      2744000 0.0078333111    13130.622 
   20253    6016.1045    6016.1045    5085.8003    5085.0904          140          140          140      2744000 0.0085266675    13130.586 
   20254    6016.1045    6016.1045    5084.3483    5084.9146          140          140          140      2744000 0.0087912112    13130.555 
   20255    6016.1045    6016.1045    5084.1981    5084.7856          140          140          140      2744000 0.0095154273    13130.525 
   20256    6016.1045    6016.1045    5085.3061     5084.872          140          140          140      2744000  0.012003504    13130.488 
   20257    6016.1045    6016.1045    5083.0549    5084.7403          140          140          140      2744000 0.0061093956    13130.448 
   20258    6016.1045    6016.1045    5085.5315    5084.8709          140          140          140      2744000 0.0081929484    13130.422 
   20259    6016.1045    6016.1045    5085.1468    5084.8812          140          140          140      2744000 0.0067351121    13130.397 
   20260    6016.1045    6016.1045    5086.9563    5085.1251          140          140          140      2744000 0.0099970666    13130.367 
   20261    6016.1045    6016.1045    5085.2909    5085.1194          140          140          140      2744000 0.0093038445    13130.337 
   20262    6016.1045    6016.1045    5085.0345    5085.0668          140          140          140      2744000 0.0076164949    13130.309 
   20263    6016.1045    6016.1045    5084.9348    5084.9802          140          140          140      2744000 0.0081714255    13130.278 
   20264    6016.1045    6016.1045     5084.491    5084.9945          140          140          140      2744000 0.0060712039    13130.257 
   20265    6016.1045    6016.1045    5084.2352    5084.9982          140          140          140      2744000 0.0069143485    13130.224 
   20266    6016.1045    6016.1045    5084.7463    5084.9422          140          140          140      2744000 0.0068269503    13130.197 
   20267    6016.1045    6016.1045    5084.8436    5085.1211          140          140          140      2744000 0.0054934781    13130.174 
   20268    6016.1045    6016.1045    5085.6727    5085.1352          140          140          140      2744000 0.0081178865    13130.147 
   20269    6016.1045    6016.1045    5084.4903    5085.0696          140          140          140      2744000  0.009376544    13130.117 
   20270    6016.1045    6016.1045    5084.0577    5084.7797          140          140          140      2744000 0.0048256954    13130.094 
   20271    6016.1045    6016.1045    5084.9479    5084.7454          140          140          140      2744000   0.01082483    13130.054 
   20272    6016.1045    6016.1045    5084.3676    5084.6787          140          140          140      2744000 0.0052387032     13130.03 
   20273    6016.1045    6016.1045    5084.9801    5084.6832          140          140          140      2744000 0.0052991742    13130.006 
   20274    6016.1045    6016.1045    5084.5646    5084.6906          140          140          140      2744000 0.0093422734    13129.978 
   20275    6016.1045    6016.1045    5084.7079    5084.7379          140          140          140      2744000 0.0064684472    13129.952 
   20276    6016.1045    6016.1045    5085.2807    5084.7913          140          140          140      2744000 0.0083677079    13129.928 
   20277    6016.1045    6016.1045    5085.1203     5084.819          140          140          140      2744000 0.0079225627    13129.903 
   20278    6016.1045    6016.1045    5084.0395    5084.6557          140          140          140      2744000 0.0050694204    13129.881 
   20279    6016.1045    6016.1045    5084.7443    5084.6811          140          140          140      2744000 0.0064625929    13129.861 
   20280    6016.1045    6016.1045     5084.492    5084.7245          140          140          140      2744000 0.0056279499    13129.841 
   20281    6016.1045    6016.1045     5084.619    5084.6916          140          140          140      2744000 0.0076432721     13129.82 
   20282    6016.1045    6016.1045    5084.3332    5084.6882          140          140          140      2744000 0.0057575237    13129.794 
   20283    6016.1045    6016.1045    5085.1185     5084.702          140          140          140      2744000 0.0054687063    13129.777 
   20284    6016.1045    6016.1045    5084.3623    5084.6818          140          140          140      2744000 0.0063645806    13129.756 
   20285    6016.1045    6016.1045     5083.766    5084.5876          140          140          140      2744000 0.0043887039     13129.73 
   20286    6016.1045    6016.1045    5084.6989    5084.5294          140          140          140      2744000 0.0055124739    13129.712 
   20287    6016.1045    6016.1045    5085.3795    5084.5553          140          140          140      2744000  0.004583344    13129.692 
   20288    6016.1045    6016.1045    5085.4556    5084.6969          140          140          140      2744000 0.0053506193    13129.675 
   20289    6016.1045    6016.1045    5084.6935    5084.6918          140          140          140      2744000  0.005247969    13129.655 
   20290    6016.1045    6016.1045    5085.3915    5084.7818          140          140          140      2744000 0.0083105179    13129.636 
   20291    6016.1045    6016.1045    5083.9288    5084.7128          140          140          140      2744000 0.0034711809     13129.62 
   20292    6016.1045    6016.1045    5085.6914    5084.8486          140          140          140      2744000 0.0059589993    13129.597 
   20293    6016.1045    6016.1045    5084.0898    5084.7457          140          140          140      2744000 0.0038303635    13129.584 
   20294    6016.1045    6016.1045     5084.942    5084.8037          140          140          140      2744000 0.0071941731    13129.567 
   20295    6016.1045    6016.1045    5085.0692     5084.934          140          140          140      2744000 0.0062762264    13129.545 
   20296    6016.1045    6016.1045    5084.2955    5084.8937          140          140          140      2744000 0.0040998489    13129.527 
   20297    6016.1045    6016.1045    5085.0877    5084.8645          140          140          140      2744000 0.0059121332    13129.513 
   20298    6016.1045    6016.1045    5084.3944    5084.7584          140          140          140      2744000 0.0053267043    13129.498 
   20299    6016.1045    6016.1045    5084.6468    5084.7537          140          140          140      2744000 0.0055942546    13129.481 
   20300    6016.1045    6016.1045    5085.0485    5084.7194          140          140          140      2744000 0.0040798224    13129.463 
   20301    6016.1045    6016.1045    5084.6028    5084.7868          140          140          140      2744000 0.0042619687    13129.451 
   20302    6016.1045    6016.1045    5085.1548    5084.7332          140          140          140      2744000 0.0053133249    13129.436 
   20303    6016.1045    6016.1045    5084.8522    5084.8094          140          140          140      2744000 0.0041698563    13129.421 
   20304    6016.1045    6016.1045     5084.369    5084.7521          140          140          140      2744000 0.0041614796    13129.407 
   20305    6016.1045    6016.1045     5084.878     5084.733          140          140          140      2744000 0.0052251117     13129.39 
   20306    6016.1045    6016.1045    5083.9326    5084.6967          140          140          140      2744000 0.0031974374    13129.377 
   20307    6016.1045    6016.1045    5084.6974    5084.6577          140          140          140      2744000 0.0045780654    13129.363 
   20308    6016.1045    6016.1045    5084.8761    5084.7058          140          140          140      2744000 0.0044755871    13129.351 
   20309    6016.1045    6016.1045    5083.9385     5084.635          140          140          140      2744000 0.0045035168    13129.333 
   20310    6016.1045    6016.1045    5084.5467    5084.5848          140          140          140      2744000 0.0039839454    13129.323 
   20311    6016.1045    6016.1045    5084.3595    5084.5605          140          140          140      2744000 0.0039181353    13129.309 
   20312    6016.1045    6016.1045    5084.7385    5084.5189          140          140          140      2744000 0.0041129649    13129.296 
   20313    6016.1045    6016.1045    5084.8129    5084.5149          140          140          140      2744000 0.0038465433    13129.285 
   20314    6016.1045    6016.1045    5085.2186    5084.5999          140          140          140      2744000 0.0051926904    13129.272 
   20315    6016.1045    6016.1045    5085.5393     5084.666          140          140          140      2744000  0.004115948    13129.261 
   20316    6016.1045    6016.1045     5084.575    5084.7303          140          140          140      2744000  0.003658769    13129.244 
   20317    6016.1045    6016.1045    5084.7719    5084.7377          140          140          140      2744000 0.0040226087    13129.235 
   20318    6016.1045    6016.1045    5084.0266    5084.6528          140          140          140      2744000 0.0038061978    13129.224 
   20319    6016.1045    6016.1045     5084.386    5084.6975          140          140          140      2744000 0.0031530637    13129.215 
   20320    6016.1045    6016.1045    5084.8298    5084.7258          140          140          140      2744000 0.0041580935    13129.205 
   20321    6016.1045    6016.1045    5084.4768    5084.7375          140          140          140      2744000 0.0023683908    13129.196 
   20322    6016.1045    6016.1045    5085.1136    5084.7751          140          140          140      2744000 0.0040914815    13129.187 
   20323    6016.1045    6016.1045    5085.1253    5084.8063          140          140          140      2744000 0.0037002462     13129.17 
   20324    6016.1045    6016.1045    5084.4562    5084.7301          140          140          140      2744000 0.0034195301     13129.16 
   20325    6016.1045    6016.1045     5084.734    5084.6495          140          140          140      2744000  0.002828827    13129.151 
   20326    6016.1045    6016.1045    5085.0187    5084.6939          140          140          140      2744000 0.0034290801    13129.144 
   20327    6016.1045    6016.1045    5085.0081    5084.7175          140          140          140      2744000 0.0049630872    13129.131 
   20328    6016.1045    6016.1045    5084.4498    5084.7598          140          140          140      2744000 0.0027295407    13129.123 
   20329    6016.1045    6016.1045    5084.7064    5084.7919          140          140          140      2744000 0.0032802685    13129.116 
   20330    6016.1045    6016.1045    5084.6542    5084.7743          140          140          140      2744000 0.0029637024    13129.106 
   20331    6016.1045    6016.1045    5084.8923    5084.8159          140          140          140      2744000 0.0028176716      13129.1 
   20332    6016.1045    6016.1045    5081.6468    5084.4692          140          140          140      2744000 1.7352018e-06    13129.097 
Loop time of 5.58151 on 48 procs for 332 steps with 16800 atoms

Minimization stats:
  E initial, next-to-last, final = 4028.13 65.483 65.4797
  Gradient 2-norm init/final= 645.773 0.850006
  Gradient inf-norm init/final= 38.7997 0.0641749
  Iterations = 332
  Force evaluations = 2130

Pair  time (%) = 0.0732038 (1.31154)
Bond  time (%) = 0.228647 (4.09651)
Neigh time (%) = 0.000339066 (0.0060748)
Comm  time (%) = 2.7073 (48.5048)
Outpt time (%) = 0.445796 (7.987)
Other time (%) = 2.12622 (38.094)

Nlocal:    350 ave 430 max 295 min
Histogram: 1 3 9 10 13 8 2 1 0 1
Nghost:    345.333 ave 382 max 291 min
Histogram: 1 1 2 4 8 9 6 6 6 5
Neighs:    349.458 ave 538 max 253 min
Histogram: 4 8 6 13 8 8 0 0 0 1

Total # of neighbors = 16774
Ave neighs/atom = 0.998452
Ave special neighs/atom = 2.14286
Neighbor list builds = 1
Dangerous builds = 0

#########################################################################
# simulated annealing to create structure
pair_style sw
pair_coeff * * OCS.sw Si O C

thermo		100

unfix		1
fix		1 active npt 9000 3000 0.0100 xyz 90000 60000 0.1000 drag 2.00
run		50000
Memory usage per processor = 2.62957 Mbytes
Step Temp T_ave Press P_ave Lx Ly Lz Volume E_pair TotEng 
   20332    6016.1045    6016.1045    10950.013    5084.4692          140          140          140      2744000    3390.9557    16520.053 
   20400    8989.5095     6313.445    90310.945    13607.051    85.030416    85.030416    85.030416     614784.5   -497.51364    23674.888 
   20500    9043.5337     6616.188     86783.17    21776.922    77.759649    77.759649    77.759649    470178.63   -4625.0682    20211.283 
   20600     8997.504    6914.3279    90435.663    30312.015     76.78313     76.78313     76.78313     452686.4   -5861.1777    19253.947 
   20700    8930.2965    7205.7471    89473.034    38750.817    76.603384    76.603384    76.603384    449514.66   -6184.9121    18916.612 
   20800      8933.03    7497.4397     87380.94     46980.41    76.440398    76.440398    76.440398    446651.52   -6608.1672    18498.276 
   20900    8904.1625    7786.2454    90334.248     55505.39    76.188779    76.188779    76.188779     442255.3   -6656.6438    18416.724 
   21000    8853.8643    8070.0214    87498.465    63746.766    76.221994    76.221994    76.221994    442833.97   -6615.0227    18261.208 
   21100    8922.5974    8360.6707    90426.206    72280.921    76.209669    76.209669    76.209669    442619.17   -6590.9434    18482.505 
   21200    8962.7125    8655.3315    89252.466    80697.678    76.148111    76.148111    76.148111    441547.47   -6680.6193    18530.834 
   21300    8898.6119    8943.5822    87736.561     88963.17    76.094218    76.094218    76.094218    440610.63    -6737.877     18271.31 
   21400    8820.2545    8926.6567    86014.314    88533.507    76.098719    76.098719    76.098719    440688.83   -6876.1766    18017.349 
   21500    8841.7471    8906.4781    91406.518    88995.841    76.110519    76.110519    76.110519    440893.86    -6820.745    18060.648 
   21600    8752.7007    8881.9977    89810.685    88933.344      75.9743      75.9743      75.9743    438530.83   -6803.7064    17888.517 
   21700    8818.2735    8870.7954    88466.423    88832.683    75.927938    75.927938    75.927938     437728.5   -6973.7101    17893.829 
   21800    8748.7127    8852.3637    88702.696    88964.858    75.914312    75.914312    75.914312    437492.87   -6865.4599    17885.826 
   21900     8838.959    8845.8434    91460.543    89077.488    76.069439    76.069439    76.069439    440180.33   -6810.9068    18037.962 
   22000    8780.8295    8838.5399    87647.251    89092.366    76.078511    76.078511    76.078511    440337.84   -6863.2996     17876.39 
   22100    8838.1308    8830.0932    88066.045     88856.35    76.042884    76.042884    76.042884    439719.52   -6838.0327    17968.953 
   22200    8696.1795    8803.4399    86590.444    88590.148    75.967898    75.967898    75.967898    438419.98   -6945.2029    17716.168 
   22300    8805.3262    8794.1114    88532.957    88669.788    76.003783    76.003783    76.003783    439041.55   -6871.0899    17990.915 
   22400    8736.4741    8785.7333    89196.613    88988.018    75.970733    75.970733    75.970733    438469.06   -6966.1106     17686.26 
   22500    8710.0446    8772.5631    89341.477    88781.513    75.952381    75.952381    75.952381    438151.38   -6961.5396    17605.862 
   22600    8647.6134    8762.0543    89808.176    88781.263    76.048797    76.048797    76.048797    439822.11   -6872.8372    17506.003 
   22700    8671.3572    8747.3627    89304.945    88865.115    75.982068    75.982068    75.982068    438665.34   -6829.3813    17577.971 
   22800    8677.6346    8740.2549     92247.01    89219.546    75.939315    75.939315    75.939315    437925.29   -6823.3387    17663.021 
   22900    8703.6712    8726.7261    86945.775    88768.069    75.983428    75.983428    75.983428    438688.91   -7064.6185    17472.697 
   23000    8688.2053    8717.4637    85815.436    88584.888    75.876782    75.876782    75.876782    436844.33   -7124.9258    17297.813 
   23100    8736.2885    8707.2794    89638.998    88742.183    75.885941    75.885941    75.885941    437002.54   -7095.2976    17304.891 
   23200    8669.5717    8704.6187    88227.663    88905.905    75.991587    75.991587    75.991587    438830.24   -6821.3132    17581.365 
   23300    8676.0244    8691.6885    91189.767    89171.586    75.855651    75.855651    75.855651    436479.46    -6877.465    17458.089 
   23400     8572.475    8675.2886    89317.992    89183.724    75.910382    75.910382    75.910382    437424.93   -6939.5365    17243.079 
   23500    8624.5899    8666.7431     89706.42    89220.218    75.878275    75.878275    75.878275    436870.13   -7036.9515    17210.779 
   23600    8622.0887    8664.1906    90659.959    89305.396     75.90763     75.90763     75.90763    437377.36   -7017.7363    17200.891 
   23700    8613.2727    8658.3822    90558.538    89430.756     75.88608     75.88608     75.88608    437004.96   -6979.8281    17208.552 
   23800    8531.9316    8643.8119     90271.27    89233.182     75.88656     75.88656     75.88656    437013.24   -6873.0063    17138.204 
   23900    8602.8943    8633.7342    85841.109    89122.715    75.950277    75.950277    75.950277    438114.97   -7047.1892    17155.693 
   24000     8556.604    8620.5741    87745.515    89315.723    75.886373    75.886373    75.886373    437010.02   -7104.8141     17025.72 
   24100    8627.1982    8609.6651    89527.954    89304.619    75.755488    75.755488    75.755488    434752.71   -7160.6034    17024.688 
   24200     8557.836    8598.4915    87807.889    89262.641     75.82161     75.82161     75.82161    435892.11   -7142.1536    16954.338 
   24300    8471.0239    8577.9914    87637.989    88907.464    75.696249    75.696249    75.696249    433733.61   -7279.2307    16623.407 
   24400    8506.2087    8571.3648    88597.961    88835.461    75.767601    75.767601    75.767601     434961.3   -7304.2242    16703.967 
   24500    8491.1068    8558.0165    89794.288    88844.247    75.745306    75.745306    75.745306    434577.44   -7314.3461     16574.84 
   24600    8527.1937     8548.527    85590.176    88337.269    75.695387    75.695387    75.695387    433718.79   -7316.8363     16670.74 
   24700    8521.1552    8539.3152    84918.986    87773.314    75.769204    75.769204    75.769204     434988.9   -7319.6799    16660.482 
   24800     8436.797    8529.8018    89058.861    87652.073     75.75489     75.75489     75.75489    434742.41   -7253.3144    16559.172 
   24900    8475.5775    8517.0701    88456.104    87913.572     75.78501     75.78501     75.78501    435261.19   -7248.7807    16581.519 
   25000    8441.0108    8505.5108    89369.312    88075.952    75.684821    75.684821    75.684821     433537.2   -7404.8392    16384.571 
   25100    8440.6478    8486.8557    86146.326    87737.789    75.796395    75.796395    75.796395    435457.37   -7264.0602    16538.108 
   25200    8427.3725    8473.8094    88325.165    87789.517    75.695379    75.695379    75.695379    433718.65   -7265.1887    16435.731 
   25300    8459.8255    8472.6895    88882.601    87913.978    75.831002    75.831002    75.831002    436054.11   -7235.1338    16488.154 
   25400    8385.5097    8460.6196    84846.627    87538.845    75.726755    75.726755    75.726755    434258.21   -7302.8045    16334.329 
   25500    8403.5372    8451.8627     87520.31    87311.447    75.674225    75.674225    75.674225    433355.14   -7309.6666    16266.767 
   25600    8358.5619    8434.9995    85570.815    87309.511    75.667997    75.667997    75.667997    433248.15   -7199.6854    16416.095 
   25700    8391.1717    8422.0012    87010.471    87518.659    75.634698    75.634698    75.634698    432676.42   -7335.5661    16295.253 
   25800    8302.7236    8408.5938    84255.995    87038.373    75.733812    75.733812    75.733812    434379.63    -7348.757    16211.621 
   25900    8363.4777    8397.3838    86703.457    86863.108    75.695015    75.695015    75.695015    433712.39   -7469.7099    16159.162 
   26000     8270.474    8380.3302     84909.83     86417.16    75.645026    75.645026    75.645026     432853.7   -7234.0992     16273.17 
   26100    8246.2807    8360.8934    89337.483    86736.275    75.596643    75.596643    75.596643    432023.66   -7288.3259    16132.404 
   26200    8277.7379      8345.93    85669.354    86470.694    75.673001    75.673001    75.673001    433334.11    -7464.621    15911.996 
   26300    8369.9504    8336.9425    85502.316    86132.666    75.610021    75.610021    75.610021    432253.05   -7490.9406    16025.684 
   26400    8322.5146     8330.643    84995.128    86147.516    75.669505    75.669505    75.669505    433274.06   -7452.6573    15856.328 
   26500    8250.6062    8315.3499    87038.506    86099.335    75.606914    75.606914    75.606914    432199.78   -7499.4668    15774.189 
   26600     8220.884    8301.5821    87061.853    86248.439    75.571847    75.571847    75.571847    431598.68   -7563.3323    15618.373 
   26700    8220.7749    8284.5424    88198.639    86367.256    75.702259    75.702259    75.702259    433836.93   -7548.5001    15646.693 
   26800    8182.4682    8272.5169    86111.826    86552.839    75.650281    75.650281    75.650281    432943.91   -7405.8302    15746.433 
   26900    8221.4426    8258.3134    87014.543    86583.948    75.607898    75.607898    75.607898    432216.65   -7516.1325    15743.848 
   27000    8189.0458    8250.1705    84606.532    86553.618     75.48284     75.48284     75.48284     430075.5   -7522.4712    15693.045 
   27100    8140.7874    8239.6212    87544.373    86374.307    75.482491    75.482491    75.482491    430069.53   -7467.8431    15516.264 
   27200    8128.4606    8224.6935     87445.34    86551.906    75.435719    75.435719    75.435719    429270.56   -7431.1416    15515.575 
   27300    8122.9921    8199.9976    86494.387    86651.113    75.320908    75.320908    75.320908    427313.52   -7687.8442    15315.573 
   27400    8125.1435    8180.2605    84131.905    86564.791    75.461254    75.461254    75.461254    429706.63   -7647.2762    15437.576 
   27500    8136.6152    8168.8614    87034.444    86564.384    75.381523    75.381523    75.381523    428346.01   -7706.8206    15259.753 
   27600    8150.8631    8161.8593    88380.537    86696.253    75.502457    75.502457    75.502457     430410.9   -7488.7746    15456.909 
   27700    8184.8563    8158.2675     84103.09    86286.698    75.568233    75.568233    75.568233    431536.77    -7481.406    15534.025 
   27800    8168.1629    8156.8369    87389.936    86414.509    75.405684    75.405684    75.405684    428758.01   -7637.9896    15365.938 
   27900    8109.4546    8145.6381    88698.986    86582.953    75.506608    75.506608    75.506608    430481.89   -7559.9661    15314.504 
   28000     8114.488    8138.1824    85410.554    86663.355    75.314464    75.314464    75.314464    427203.86   -7662.0511    15128.506 
   28100     8044.845    8128.5881    83704.705    86279.388    75.333981    75.333981    75.333981    427536.06   -7898.3922    14884.904 
   28200    8070.3802    8122.7801    85875.098    86122.364    75.425352    75.425352    75.425352    429093.61   -7776.6548    15047.991 
   28300    8003.1191    8110.7928    85332.142    86006.139     75.35013     75.35013     75.35013    427811.06   -7703.8921    14960.442 
   28400    8097.3498    8108.0134    85270.374    86119.986    75.442796    75.442796    75.442796    429391.39   -7705.5307     15154.57 
   28500    8030.1156    8097.3635     86322.51    86048.793    75.230914    75.230914    75.230914    425783.69   -7809.7902    14844.519 
   28600    7966.7767    8078.9548    84926.102     85703.35    75.419751    75.419751    75.419751    428998.02    -7847.586     14719.33 
   28700    7989.4007    8059.4093    85458.712    85838.912    75.322103    75.322103    75.322103    427333.87   -7604.3237    14882.003 
   28800    8003.8864    8042.9816    81411.017     85241.02    75.359164    75.359164    75.359164    427964.97   -7748.2163    14795.981 
   28900    7938.6038    8025.8965    84205.491     84791.67    75.318858    75.318858    75.318858    427278.63   -7803.5989    14680.398 
   29000    7963.0343    8010.7512    81963.959    84447.011    75.362777    75.362777    75.362777    428026.52   -7913.3141    14535.179 
   29100    7917.0119    7997.9678    85445.435    84621.084    75.274655    75.274655    75.274655    426526.79   -7867.4309    14485.965 
   29200    7923.1385    7983.2437    87878.712    84821.445    75.149963    75.149963    75.149963    424410.69   -7958.8172    14440.915 
   29300     7907.685    7973.7003    87354.987     85023.73    75.249886    75.249886    75.249886     426105.9   -8009.7105    14265.013 
   29400    7965.2567     7960.491    84799.432    84976.636    75.350582    75.350582    75.350582    427818.77   -7889.7687    14430.418 
   29500    7861.2534    7943.6047    85548.287    84899.213    75.226871    75.226871    75.226871    425715.04   -7980.1078    14316.975 
   29600    7859.8182    7932.9089    84186.313    84825.235    75.372848    75.372848    75.372848    428198.14   -7829.3699    14357.003 
   29700    7877.9831    7921.7671    83671.742    84646.538    75.265595    75.265595    75.265595    426372.81   -7847.4511    14397.532 
   29800    7930.1064    7914.3891    82160.416    84721.477    75.276449    75.276449    75.276449     426557.3   -8028.2046    14366.272 
   29900    7832.6276    7903.7915    86006.757    84901.604    75.119567    75.119567    75.119567    423895.91   -7954.9134    14201.629 
   30000    7836.1316    7891.1012    84840.011    85189.209    75.118685    75.118685    75.118685    423880.98   -8066.5926    14049.446 
   30100    7850.6353    7884.4636    82585.293    84903.195    75.153628    75.153628    75.153628    424472.79   -8128.1059    14089.228 
   30200    7808.8749    7873.0372    84835.614    84598.885    75.196984    75.196984    75.196984    425207.84   -7994.6767    14085.727 
   30300    7806.6724     7862.936    80800.582    83943.445    75.165477    75.165477    75.165477    424673.59    -8120.472    14029.967 
   30400    7824.4967    7848.8599    84658.766    83929.378    75.168359    75.168359    75.168359    424722.44   -8156.7395    13991.013 
   30500    7806.4043     7843.375    85734.432    83947.993     75.13137     75.13137     75.13137    424095.76   -8121.8046    13941.069 
   30600    7837.3474     7841.128    84320.579    83961.419    75.042229    75.042229    75.042229    422588.01   -8234.5644    13950.252 
   30700    7715.9638     7824.926    83184.602    83912.705    75.101111    75.101111    75.101111    423583.55   -8287.4672    13617.922 
   30800    7736.9409    7805.6095    82040.657    83900.729    75.175207    75.175207    75.175207    424838.54   -8238.3324    13613.357 
   30900      7677.27    7790.0737    83718.951    83671.949    75.087432    75.087432    75.087432    423352.14    -8170.343    13602.907 
   31000     7693.642    7775.8248    83465.327     83534.48    75.097189    75.097189    75.097189    423517.19   -8164.5227    13675.395 
   31100    7734.2368    7764.1849    89051.504    84181.102    75.025677    75.025677    75.025677    422308.45   -8135.7149    13682.756 
   31200    7675.4289    7750.8403    81986.937    83896.234    75.082229    75.082229    75.082229    423264.14   -8207.9843     13518.25 
   31300    7626.2786    7732.8009     83210.02    84137.178    75.094253    75.094253    75.094253    423467.52    -8259.214    13242.241 
   31400     7686.411    7718.9924    82747.713    83946.072    75.156768    75.156768    75.156768    424525.99   -8123.2874    13559.206 
   31500    7661.0152    7704.4535    84204.443    83793.073    75.095792    75.095792    75.095792    423493.55   -8200.6326     13523.78 
   31600    7623.1307    7683.0318    79086.912    83269.707    74.987407    74.987407    74.987407    421662.53   -8408.0041    13171.636 
   31700    7641.4616    7675.5816    79476.893    82898.936     74.98249     74.98249     74.98249    421579.59   -8379.5469    13271.851 
   31800    7663.8902    7668.2765    82769.484    82971.819    74.978651    74.978651    74.978651    421514.84   -8518.5287      13069.4 
   31900     7619.029    7662.4524    83403.798    82940.303    75.002885    75.002885    75.002885    421923.69   -8268.4509    13325.997 
   32000    7626.6981     7655.758    81854.531    82779.224    75.067549    75.067549    75.067549    423015.91   -8313.3524    13277.824 
   32100    7600.9239    7642.4267    84305.667     82304.64    74.978024    74.978024    74.978024    421504.27   -8377.2105    13091.832 
   32200    7552.2204    7630.1059    84984.245    82604.371    75.051548    75.051548    75.051548    422745.46   -8318.9118    13019.691 
   32300    7517.8933    7619.2673     82975.81     82580.95    74.912284    74.912284    74.912284    420396.53   -8339.7923    13002.302 
   32400    7592.6331    7609.8895    82903.679    82596.546    75.075003    75.075003    75.075003    423141.94   -8385.8054     13039.77 
   32500    7556.9156    7599.4796     83342.16    82510.318    75.028914    75.028914    75.028914    422363.11   -8357.4757    13011.063 
   32600    7514.2372    7588.5902    82329.589    82834.586    75.015698    75.015698    75.015698    422139.95   -8392.9131    12804.597 
   32700    7528.1706    7577.2611    84107.719    83297.668    75.000219    75.000219    75.000219     421878.7   -8530.6739    12821.048 
   32800    7498.5757    7560.7297    85101.472    83530.867    74.893385    74.893385    74.893385    420078.42   -8397.7629    12826.189 
   32900    7478.4948    7546.6763    82969.922    83487.479    74.897612    74.897612    74.897612    420149.55   -8469.5834    12637.714 
   33000    7475.2141    7531.5279    80915.605    83393.587    74.876801    74.876801    74.876801    419799.44    -8396.143    12705.532 
   33100    7492.4994    7520.6854    80382.609    83001.281    74.770879    74.770879    74.770879    418020.39   -8656.0127    12449.354 
   33200    7470.5112    7512.5145    82027.395    82705.596    74.877892    74.877892    74.877892    419817.78   -8490.3378    12622.726 
   33300    7445.4212    7505.2673    82341.658    82642.181     74.92754     74.92754     74.92754    420653.42   -8481.2489    12587.632 
   33400    7457.6663    7491.7706    80521.599    82403.973    74.909996    74.909996    74.909996       420358   -8513.2692    12678.601 
   33500    7417.9264    7477.8717    82013.977    82271.154    74.850477    74.850477    74.850477    419356.83    -8388.343    12601.006 
   33600     7389.237    7465.3717    83172.793    82355.475    74.830819    74.830819    74.830819     419026.5   -8579.8332    12437.533 
   33700    7395.0471    7452.0593    83310.162    82275.719    74.833338    74.833338    74.833338    419068.83     -8581.67    12267.056 
   33800    7420.8229     7444.284    82625.365    82028.108    74.786816    74.786816    74.786816    418287.73   -8526.6391    12363.143 
   33900     7398.147    7436.2493    82799.689    82011.085    74.791143    74.791143    74.791143    418360.34   -8551.0041    12465.662 
   34000    7410.4088    7429.7687    81743.184    82093.843    74.805336    74.805336    74.805336    418598.56   -8665.6381    12297.948 
   34100     7301.866    7410.7054     81446.88     82200.27    74.883774    74.883774    74.883774    419916.72   -8652.0177      12037.3 
   34200    7319.3651    7395.5908    83299.066    82327.437    74.725671    74.725671    74.725671     417262.6   -8652.5573    12040.146 
   34300    7362.3082    7387.2795    82070.513    82300.323    74.787602    74.787602    74.787602    418300.92   -8784.4829    12066.295 
   34400    7355.0722    7377.0201    80242.084    82272.371     74.76694     74.76694     74.76694    417954.31   -8765.2227    12040.921 
   34500    7291.8227    7364.4097    80919.566     82162.93    74.670551    74.670551    74.670551    416339.94   -8831.8871    11875.692 
   34600    7337.8064    7359.2666    80252.829    81870.934    74.817896    74.817896    74.817896    418809.45    -8719.057    12059.307 
   34700    7254.7588    7345.2378     81122.92     81652.21    74.672052    74.672052    74.672052    416365.04    -8694.895    11819.698 
   34800    7270.0284    7330.1584     82575.81    81647.254     74.57788     74.57788     74.57788    414791.73   -8855.0968    11726.886 
   34900    7296.7151    7320.0152    82249.057    81592.191    74.670001    74.670001    74.670001    416330.73   -8847.6744    11826.992 
   35000    7225.9279    7301.5671    82365.842    81654.457    74.643334    74.643334    74.643334    415884.84    -8861.312    11612.043 
   35100    7211.2821    7292.5087    79436.012     81453.37     74.74381     74.74381     74.74381    417566.54    -8774.007    11678.482 
   35200    7232.1204    7283.7842    81861.459    81309.609    74.634169    74.634169    74.634169    415731.67   -8699.6287    11680.943 
   35300    7209.1672    7268.4701     78471.22     80949.68    74.750316    74.750316    74.750316     417675.6   -8889.9411    11480.573 
   35400    7165.3276    7249.4957    81402.218    81065.693    74.730964    74.730964    74.730964    417351.29   -8892.1833    11466.517 
   35500    7130.3636    7233.3498    80117.027    80985.439    74.563214    74.563214    74.563214    414547.07   -8869.9741    11407.153 
   35600    7185.7983    7218.1489    78918.393    80851.996    74.592105    74.592105    74.592105    415029.14   -8892.4131    11532.602 
   35700    7131.2726    7205.8003    79265.593    80666.263    74.721127    74.721127    74.721127     417186.5   -8781.9859    11425.911 
   35800    7103.5891    7189.1564    80607.919    80469.474    74.673921    74.673921    74.673921     416396.3   -8797.0741    11399.889 
   35900    7149.6955    7174.4544    79752.088    80219.777    74.652028    74.652028    74.652028    416030.17   -8865.2015     11446.55 
   36000    7098.1239     7161.674    79362.075      79919.4    74.638582    74.638582    74.638582    415805.41   -8900.8574    11332.109 
   36100    7079.1881    7148.4646    84639.296    80439.729    74.495195    74.495195    74.495195    413413.63   -9023.5406    11129.442 
   36200    7061.8256    7131.4352    79139.559    80167.539    74.594782    74.594782    74.594782    415073.83    -9039.227    11120.873 
   36300    7066.3063    7117.1491    81747.321    80495.149    74.527556    74.527556    74.527556    413952.63   -8960.8724    11110.284 
   36400    7081.2017    7108.7365     81552.45    80510.172    74.494874    74.494874    74.494874    413408.27   -8970.1825    11077.313 
   36500    7002.8052    7095.9807    76854.321    80183.901    74.522349    74.522349    74.522349    413865.87    -9048.759    10837.026 
   36600    7070.2943    7084.4303    81883.772    80480.439    74.519221    74.519221    74.519221    413813.75   -9076.6812    10911.932 
   36700    7046.1852    7075.9215    81242.643    80678.144    74.476825    74.476825    74.476825    413107.86    -8953.758    11056.765 
   36800    7057.0204    7071.2646    81915.421    80808.895     74.40401     74.40401     74.40401    411897.38    -9099.628    10822.958 
   36900    7067.2456    7063.0196    79324.332    80766.119    74.400373    74.400373    74.400373    411836.97   -9313.9271     10769.34 
   37000    7016.0899    7054.8162     80283.31    80858.242    74.442655    74.442655    74.442655    412539.52   -9226.7215    10583.027 
   37100    7016.7995    7048.5774    79412.424    80335.555    74.443923    74.443923    74.443923    412560.61   -9364.3102    10522.307 
   37200    7017.0004    7044.0949    78327.429    80254.342    74.472722    74.472722    74.472722    413039.59   -9212.8115    10765.378 
   37300     6957.291    7033.1933    76931.014    79772.712    74.429964    74.429964    74.429964    412328.58   -9187.3717    10545.356 
   37400    7009.1593    7025.9891    77915.151    79408.982    74.434372    74.434372    74.434372    412401.83   -9272.3281    10536.008 
   37500    6957.6652    7021.4751    78703.521    79593.902    74.401792    74.401792    74.401792    411860.54   -9217.5432    10516.672 
   37600    6874.2885    7001.8745    76210.309    79026.555    74.456301    74.456301    74.456301    412766.43   -9252.8408     10326.41 
   37700    6889.9505     6986.251    80804.596    78982.751    74.399846    74.399846    74.399846    411828.22   -9354.6199    10261.566 
   37800    6942.7782    6974.8268    79347.886    78725.997    74.365048    74.365048    74.365048    411250.64   -9331.9569    10363.736 
   37900    6926.3014    6960.7324    81287.821    78922.346    74.441947    74.441947    74.441947    412527.75   -9160.6934    10388.086 
   38000    6883.3439    6947.4578    80273.955    78921.411    74.382665    74.382665    74.382665    411542.99   -9247.4493    10173.165 
   38100    6899.1633    6935.6942    77650.865    78745.255    74.450456    74.450456    74.450456    412669.23   -9423.7944     10179.74 
   38200     6842.736    6918.2677    81474.506    79059.962    74.306024    74.306024    74.306024    410272.19   -9393.0187    10096.608 
   38300    6895.2159    6912.0602    78356.995    79202.561    74.410223    74.410223    74.410223    412000.57   -9322.6884    10282.101 
   38400    6863.4998    6897.4943    81487.653    79559.811    74.382922    74.382922    74.382922    411547.25   -9338.6745    10067.167 
   38500    6814.4311    6883.1708    77082.838    79397.742    74.199344    74.199344    74.199344    408507.65   -9403.6423    10009.096 
   38600     6780.582    6873.8002    78976.203    79674.332    74.183694    74.183694    74.183694    408249.22   -9458.3515    9789.8134 
   38700    6827.3113    6867.5363    78054.221    79399.294    74.239519    74.239519    74.239519    409171.56   -9497.8262    9835.0078 
   38800    6778.6755     6851.126    78714.994    79336.005    74.256731    74.256731    74.256731    409456.22   -9419.9507    9835.8641 
   38900    6790.0605    6837.5019    76886.459    78895.869    74.328707    74.328707    74.328707    410648.02   -9455.7704    9841.9216 
   39000     6749.601    6824.1276    79940.461    78862.519     74.26444     74.26444     74.26444    409583.76   -9498.2232    9709.5138 
   39100    6794.6957    6813.6809    77785.744    78876.007    74.216442    74.216442    74.216442    408790.12   -9575.6975    9640.9724 
[...]
  367400    300.07863    300.27993   -1853.4549   -1988.3604    76.387432    76.387432    76.387432     445723.7   -24559.355    -23566.19 
  367500    298.17816     299.9609   -1928.2654   -1980.9735    76.416863    76.416863    76.416863     446239.1   -24555.785    -23564.02 
  367600    300.49874     300.0403   -1969.7546   -1962.0846    76.477027    76.477027    76.477027    447293.91   -24556.108   -23557.325 
  367700    300.44359    299.91401   -1866.2806   -1963.1075     76.44497     76.44497     76.44497    446731.67   -24556.036   -23561.365 
  367800    297.74816    299.55859   -1915.6255   -2005.5091    76.485564    76.485564    76.485564    447443.73   -24550.557     -23562.7 
  367900    300.34638    299.87584   -2136.6445   -1986.9302    76.496823    76.496823    76.496823    447641.35   -24561.577   -23564.311 
  368000    300.17497    299.65001   -1549.5469   -1943.6963    76.498557    76.498557    76.498557    447671.79   -24556.378   -23561.215 
  368100    302.55888    300.01981    -2140.288   -1941.9324     76.51179     76.51179     76.51179    447904.15   -24556.149   -23558.675 
  368200    298.55794    299.79012   -2153.7577   -1970.1098    76.570133    76.570133    76.570133    448929.57   -24549.112   -23561.234 
  368300    298.49469    299.70802   -1997.2613   -1951.0879    76.589422    76.589422    76.589422    449268.93   -24556.539   -23563.032 
  368400    299.13311    299.61346   -1764.4605   -1942.1885      76.5879      76.5879      76.5879    449242.14   -24554.044   -23562.684 
  368500    301.05948     299.9016   -1920.1784   -1941.3798    76.605942    76.605942    76.605942    449559.71   -24550.331   -23555.558 
  368600    299.75814    299.82754   -1910.8122   -1935.4856    76.636354    76.636354    76.636354    450095.32    -24553.61   -23559.364 
  368700     298.9282      299.676   -1839.4908   -1932.8066    76.557554    76.557554    76.557554    448708.34   -24557.561   -23568.916 
  368800    298.52949    299.75413   -2062.1562   -1947.4597    76.551072    76.551072    76.551072    448594.38   -24554.772    -23565.46 
  368900    299.84441    299.70393   -2177.7237   -1951.5676    76.505334    76.505334    76.505334    447790.79   -24553.101   -23559.067 
  369000    302.26826    299.91326   -1874.0973   -1984.0226     76.52884     76.52884     76.52884    448203.66   -24556.907   -23559.339 
  369100    298.99369    299.55674   -2431.6862   -2013.1624    76.478465    76.478465    76.478465    447319.14   -24560.759   -23569.742 
  369200     302.6503    299.96598   -1798.0624   -1977.5929    76.470043    76.470043    76.470043    447171.38   -24558.896   -23564.222 
  369300    299.57627    300.07414   -1718.3801   -1949.7048    76.509273    76.509273    76.509273    447859.95   -24553.434   -23560.999 
  369400    299.99969    300.16079    -2096.196   -1982.8783    76.555481    76.555481    76.555481     448671.9   -24548.764   -23560.635 
  369500    297.27219    299.78206   -2073.0027   -1998.1608    76.541915    76.541915    76.541915    448433.43   -24547.355   -23567.475 
  369600    300.27518    299.83377   -1991.8057   -2006.2601    76.460237    76.460237    76.460237    446999.38   -24556.794   -23560.632 
  369700    302.20699    300.16165   -1831.9765   -2005.5087    76.481586    76.481586    76.481586    447373.92   -24557.947   -23558.789 
  369800     299.4629    300.25499   -2079.7541   -2007.2685     76.49982     76.49982     76.49982    447693.97   -24556.112   -23563.561 
  369900    297.78382    300.04893   -1944.3969   -1983.9358    76.506623    76.506623    76.506623    447813.41   -24556.641    -23568.44 
  370000    302.16278    300.03838   -2020.2285   -1998.5489    76.508724    76.508724    76.508724     447850.3    -24556.24   -23563.838 
  370100    299.43679    300.08269   -2192.1129   -1974.5916    76.536943    76.536943    76.536943    448346.04   -24551.014   -23559.938 
  370200    300.94254    299.91192   -1772.6618   -1972.0515    76.528442    76.528442    76.528442    448196.67   -24554.418   -23562.973 
  370300    297.31018    299.68531   -2054.4681   -2005.6603    76.492351    76.492351    76.492351    447562.84   -24555.129   -23568.724 
  370400    299.28257    299.61359   -2219.8468   -2018.0254    76.535749    76.535749    76.535749    448325.06   -24554.576   -23564.762 
  370500    300.58649    299.94503   -1804.7823   -1991.2034    76.519223    76.519223    76.519223    448034.71   -24549.109   -23556.116 
  370600    299.67799    299.88531   -1992.8456   -1991.3073    76.460656    76.460656    76.460656    447006.73   -24549.825   -23561.446 
  370700    298.70372    299.53498   -1807.3022   -1988.8399    76.443417    76.443417    76.443417    446704.45   -24552.646   -23565.205 
  370800    299.23395    299.51208   -2346.7093   -2015.5354    76.473017    76.473017    76.473017    447223.57   -24549.282   -23560.017 
  370900    300.77889    299.81159   -2145.7827    -2035.674    76.460844    76.460844    76.460844    447010.02    -24554.17   -23557.622 
  371000    299.97122    299.59243   -1660.6909   -1999.7203     76.45684     76.45684     76.45684    446939.81   -24550.324   -23560.467 
  371100     298.6845     299.5172   -1856.3031   -1966.1393    76.475756    76.475756    76.475756    447271.62   -24553.834   -23566.858 
  371200    298.01187    299.22414   -2209.0152   -2009.7746    76.550991    76.550991    76.550991    448592.95   -24551.346    -23562.31 
  371300    300.55346    299.54847   -2023.6207   -2006.6899    76.484865    76.484865    76.484865    447431.45   -24549.041   -23558.033 
  371400    300.43206    299.66342   -2254.4551   -2010.1507     76.42324     76.42324     76.42324    446350.82    -24554.28    -23560.81 
  371500    301.43449    299.74821   -1767.3491   -2006.4074    76.433581    76.433581    76.433581    446532.04   -24555.975   -23563.583 
  371600    299.64877    299.74529   -2087.7599   -2015.8988    76.497096    76.497096    76.497096    447646.14    -24551.35   -23557.607 
  371700    301.09355    299.98428   -2170.4604   -2052.2146    76.540813    76.540813    76.540813    448414.05    -24556.95   -23563.047 
  371800    297.27209    299.78809   -2043.9986   -2021.9436    76.583865    76.583865    76.583865    449171.14   -24550.726   -23562.159 
  371900    301.17473    299.82768    -2009.269   -2008.2922    76.587992    76.587992    76.587992    449243.76   -24558.519   -23564.163 
  372000    300.20686    299.85124   -1946.8347   -2036.9066    76.582501    76.582501    76.582501    449147.14   -24556.182   -23562.764 
  372100    298.49652    299.83244   -1740.9345   -2025.3697    76.591776    76.591776    76.591776    449310.34   -24556.461   -23567.489 
  372200    301.23502    300.15476   -1869.6971   -1991.4379    76.548134    76.548134    76.548134    448542.74   -24552.425    -23560.46 
  372300    298.58598    299.95801    -2105.669   -1999.6427    76.493234    76.493234    76.493234    447578.35    -24559.93   -23571.491 
  372400    301.26569    300.04137   -1834.3228   -1957.6295    76.488787    76.488787    76.488787     447500.3   -24560.499   -23567.026 
  372500    302.18084      300.116   -2206.9897   -2001.5936    76.470173    76.470173    76.470173    447173.67   -24557.245   -23560.158 
  372600    298.52314    300.00344   -2113.2924   -2004.1468    76.475854    76.475854    76.475854    447273.33   -24558.347   -23572.398 
  372700    302.43806    300.13789   -1895.8096   -1976.6817    76.530732    76.530732    76.530732     448236.9    -24559.81   -23558.723 
  372800    297.03569    300.11425   -2310.1723   -2003.2991    76.576394    76.576394    76.576394     449039.7   -24558.466    -23572.21 
  372900    300.26276    300.02305   -1591.0264   -1961.4749    76.582975    76.582975    76.582975    449155.48   -24559.267   -23566.568 
  373000    297.80036    299.78241   -2100.1195   -1976.8033    76.598116    76.598116    76.598116    449421.94   -24559.541   -23569.781 
  373100    300.29972    299.96273   -2056.6948   -2008.3794    76.591759    76.591759    76.591759    449310.05    -24552.52   -23559.009 
  373200    301.02039    299.94126   -1914.0877   -2012.8184    76.571055    76.571055    76.571055    448945.78   -24555.518   -23561.627 
  373300    300.26225    300.10889   -1629.1773   -1965.1693    76.588759    76.588759    76.588759    449257.25   -24552.837   -23558.649 
  373400    300.12076     299.9944   -1793.8123   -1961.1182     76.56811     76.56811     76.56811    448893.98   -24548.888   -23559.445 
  373500    299.76656    299.75297   -1882.7667   -1928.6959    76.619621    76.619621    76.619621    449800.56   -24552.434   -23558.253 
  373600    300.12743     299.9134    -1901.748   -1907.5415    76.589105    76.589105    76.589105    449263.33   -24562.854   -23561.701 
  373700    300.38175    299.70777   -2226.4213   -1940.6026     76.55949     76.55949     76.55949    448742.38   -24552.559   -23560.875 
  373800    300.22687    300.02689   -2019.2536   -1911.5108    76.577738    76.577738    76.577738    449063.33   -24551.847   -23555.994 
  373900    301.13358    300.11397   -2225.1783   -1974.9259     76.59149     76.59149     76.59149    449305.32    -24556.17   -23564.028 
  374000    300.01629    300.33556    -1858.371   -1950.7511    76.625663    76.625663    76.625663    449906.99   -24550.873   -23556.419 
  374100    301.33213     300.4388   -2165.9938    -1961.681    76.618909    76.618909    76.618909    449788.03   -24553.344   -23553.689 
  374200    298.77576    300.21434   -2052.3112   -1975.5033    76.608487    76.608487    76.608487    449604.51   -24554.923   -23562.026 
  374300    300.09833    300.19795   -2068.9001   -2019.4756    76.550636    76.550636    76.550636    448586.71   -24557.943   -23561.555 
  374400    302.33064    300.41893   -1887.6154   -2028.8559     76.50553     76.50553     76.50553    447794.22   -24548.777    -23557.99 
  374500    299.49565    300.39184   -1649.7201   -2005.5513    76.483352    76.483352    76.483352    447404.91   -24549.697   -23559.821 
  374600    300.32458    300.41156   -2136.9527   -2029.0718    76.512023    76.512023    76.512023    447908.24   -24553.298   -23560.957 
  374700    299.63415     300.3368   -2062.6388   -2012.6935    76.514628    76.514628    76.514628       447954   -24556.866   -23566.067 
  374800    298.80962    300.19507   -2001.9328   -2010.9614    76.492682    76.492682    76.492682    447568.67   -24550.727   -23563.163 
  374900    300.95229    300.17694    -1741.123   -1962.5559    76.480291    76.480291    76.480291    447351.19   -24555.937   -23561.804 
  375000    301.26771    300.30209   -2196.3261   -1996.3514    76.493603    76.493603    76.493603    447584.82   -24554.018   -23560.081 
  375100    297.55323     299.9242   -1954.3656   -1975.1886    76.471677    76.471677    76.471677    447200.05   -24553.799   -23565.851 
  375200    300.79274    300.12589   -2221.1255     -1992.07    76.520498    76.520498    76.520498     448057.1   -24553.314   -23558.716 
  375300    301.49117    300.26518   -2020.2512   -1987.2051    76.548997    76.548997    76.548997     448557.9   -24551.008   -23555.307 
  375400    300.66816    300.09893   -2130.0211   -2011.4457    76.549458    76.549458    76.549458    448566.01   -24553.073   -23558.633 
  375500    297.86852    299.93622   -1685.6968   -2015.0433    76.540052    76.540052    76.540052    448400.68   -24557.569   -23567.399 
  375600    301.08109    300.01187   -2009.4199   -2002.2901    76.493767    76.493767    76.493767    447587.71   -24555.004   -23558.971 
  375700    298.29432    299.87789   -1877.0309   -1983.7293    76.508706    76.508706    76.508706       447850   -24554.187       -23566 
  375800    298.76166    299.87309   -2249.2171   -2008.4577    76.545356    76.545356    76.545356    448493.91   -24549.503   -23563.387 
  375900    301.02431    299.88029   -2126.2394   -2046.9694    76.530192    76.530192    76.530192    448227.41   -24560.076   -23568.556 
  376000    300.14243    299.76776   -1715.9874   -1998.9355    76.520295    76.520295    76.520295    448053.54   -24554.939   -23564.468 
  376100    300.59792    300.07223   -2358.3428   -2039.3332    76.518684    76.518684    76.518684    448025.24   -24554.585   -23558.415 
  376200    299.42627    299.93558   -1983.4404   -2015.5647    76.545604    76.545604    76.545604    448498.26   -24556.035   -23563.477 
  376300     302.9685    300.08332   -2178.0496   -2031.3445      76.5674      76.5674      76.5674    448881.49   -24561.086   -23563.185 
  376400    300.82668    300.09917   -1982.3884   -2016.5813     76.59859     76.59859     76.59859    449430.27   -24551.159   -23557.111 
  376500     297.1736    300.02968   -1802.2465   -2028.2362    76.522894    76.522894    76.522894     448099.2   -24555.179   -23567.385 
  376600    302.56225    300.17779   -1967.4261   -2024.0369    76.558845    76.558845    76.558845    448731.05   -24559.873   -23557.731 
  376700    302.68384    300.61674   -1744.3805   -2010.7718    76.537235    76.537235    76.537235    448351.17    -24559.57   -23562.167 
  376800    300.27768    300.76835   -2172.5322   -2003.1033    76.523178    76.523178    76.523178    448104.17   -24556.638   -23563.182 
  376900     298.9156    300.55748    -1959.009   -1986.3803    76.547381    76.547381    76.547381    448529.49     -24555.3   -23566.564 
  377000    301.55456    300.69869   -2025.3297   -2017.3145    76.508449    76.508449    76.508449    447845.47   -24554.049    -23558.45 
  377100    299.29488    300.56839   -1632.4908   -1944.7293    76.523485    76.523485    76.523485    448109.57   -24551.883   -23561.092 
  377200    300.01883    300.62764    -2250.397    -1971.425    76.546837    76.546837    76.546837    448519.93   -24557.766   -23561.677 
  377300    301.27686    300.45848   -1872.1268   -1940.8327    76.545372    76.545372    76.545372    448494.18   -24556.532   -23559.888 
  377400    302.40971    300.61678   -1787.8604   -1921.3799    76.532814    76.532814    76.532814    448273.47    -24557.87   -23558.846 
  377500       300.24    300.92342   -1780.1162   -1919.1669    76.568275    76.568275    76.568275    448896.87    -24558.27   -23558.571 
  377600    297.67212    300.43441     -2097.47   -1932.1713    76.626844    76.626844    76.626844    449927.79   -24551.203   -23562.782 
  377700    301.46232    300.31225   -1952.5008   -1952.9833    76.617171    76.617171    76.617171    449757.43   -24552.991   -23555.554 
  377800    302.63748    300.54823    -2172.477   -1952.9778    76.559309    76.559309    76.559309    448739.21   -24556.946   -23559.894 
  377900    299.47453    300.60413   -1865.0478   -1943.5817    76.555205    76.555205    76.555205    448667.04   -24552.219   -23562.971 
  378000    297.96643    300.24532   -2165.8381   -1957.6325    76.554808    76.554808    76.554808    448660.06   -24555.047   -23565.475 
  378100    302.18458    300.53428   -2086.0865   -2002.9921    76.534774    76.534774    76.534774    448307.91   -24560.592   -23559.202 
  378200    300.01183    300.53359   -1870.6824   -1965.0206    76.558353    76.558353    76.558353    448722.39   -24546.153   -23557.544 
  378300    302.83777    300.68968    -2226.151    -2000.423    76.525216    76.525216    76.525216    448139.99   -24562.832   -23566.866 
  378400    299.82321    300.43103    -2000.002   -2021.6372    76.515452    76.515452    76.515452    447968.47   -24553.666    -23563.44 
  378500      301.371    300.54413   -2070.9863   -2050.7242    76.528957    76.528957    76.528957    448205.71   -24551.613   -23557.599 
  378600    299.56427    300.73334   -2097.2199   -2050.6992    76.547226    76.547226    76.547226    448526.78   -24551.398   -23559.611 
  378700    298.32029    300.41914   -2141.7695    -2069.626    76.574013    76.574013    76.574013    448997.82   -24550.663   -23560.036 
  378800    301.79318    300.33471   -1800.3298   -2032.4113    76.549009    76.549009    76.549009    448558.11   -24554.211   -23554.086 
  378900    299.25784    300.31304   -2167.3113   -2062.6377    76.535288    76.535288    76.535288    448316.95   -24554.706    -23562.05 
  379000    299.14664    300.43106   -1750.7478   -2021.1286    76.528564    76.528564    76.528564    448198.81   -24559.824   -23563.826 
  379100     298.6956    300.08216   -2009.0977   -2013.4298    76.573344    76.573344    76.573344    448986.05   -24556.994   -23566.846 
  379200    299.25393    300.00637    -2140.749   -2040.4364    76.646472    76.646472    76.646472    450273.62   -24553.636   -23560.039 
  379300    298.70545    299.59314   -2154.0068    -2033.222    76.608283    76.608283    76.608283    449600.91   -24553.983   -23563.554 
  379400    298.34424    299.44525   -1903.8547   -2023.6073    76.572443    76.572443    76.572443    448970.19   -24557.522   -23568.085 
  379500     298.6021    299.16835   -1629.9185   -1979.5005    76.493924    76.493924    76.493924    447590.47   -24557.691   -23568.721 
  379600    301.48323    299.36025   -2175.6258   -1987.3411    76.510364    76.510364    76.510364     447879.1   -24558.148   -23565.859 
  379700    302.72666    299.80089   -1885.7123   -1961.7354    76.495726    76.495726    76.495726     447622.1   -24554.074   -23557.822 
  379800    299.24764    299.54633   -1874.3832   -1969.1407    76.569008    76.569008    76.569008    448909.78   -24555.446   -23565.642 
  379900    300.42271    299.66282   -2209.0497   -1973.3146    76.597824    76.597824    76.597824    449416.79   -24553.909   -23557.593 
  380000    300.49632    299.79779   -2109.8818    -2009.228     76.53474     76.53474     76.53474    448307.32   -24553.631   -23557.441 
  380100    300.32147    299.96038     -2128.23   -2021.1412    76.515143    76.515143    76.515143    447963.03   -24553.711   -23560.238 
  380200    302.62519     300.2975   -1999.8719   -2007.0535    76.519563    76.519563    76.519563    448040.67   -24555.428   -23559.549 
  380300    300.68512    300.49547   -1950.7074   -1986.7235    76.495658    76.495658    76.495658    447620.91   -24549.257   -23555.432 
  380332    298.60204    300.52125   -2142.3683   -2010.5749    76.521434    76.521434    76.521434    448073.54   -24555.356   -23564.175 
Loop time of 344.367 on 48 procs for 20000 steps with 16800 atoms

Pair  time (%) = 196.375 (57.0248)
Bond  time (%) = 2.12087 (0.615875)
Neigh time (%) = 0.75811 (0.220146)
Comm  time (%) = 109.202 (31.7108)
Outpt time (%) = 0.758909 (0.220378)
Other time (%) = 35.1529 (10.208)

Nlocal:    350 ave 399 max 301 min
Histogram: 4 0 6 5 7 10 8 3 4 1
Nghost:    1280.98 ave 1366 max 1179 min
Histogram: 3 2 2 5 4 11 9 8 3 1
Neighs:    18510.9 ave 22243 max 14529 min
Histogram: 4 2 3 5 7 9 6 7 3 2

Total # of neighbors = 888522
Ave neighs/atom = 52.8882
Ave special neighs/atom = 2.14286
Neighbor list builds = 300
Dangerous builds = 0

#########################################################################
clear
next a
next p
next q
next r
next s
next t
next v
jump in.EtOCSMethyl# EtOCSMethyl -- network connectivity scan -- with bulk modulus simulation

# trial parameter
variable a index 1.1 1.2 1.3 2.1 2.2 2.3 3.1 3.2 3.3 
# EtOCSMethyl precursor start moleculeID parameter
variable p index 1 1 1 1 1 1 1 1 1 
# EtOCSMethyl precursor end moleculeID parameter
variable q index 2000 2000 2000 2000 2000 2000 2000 2000 2000 
# free O start atomID parameter
variable r index 10001 10001 10001 10001 10001 10001 10001 10001 10001 
# free O end atomID parameter
variable s index 16800 16800 16800 17600 17600 17600 18400 18400 18400 
# porogen start moleculeID parameter
variable t index 2001 2001 2001 2001 2001 2001 2001 2001 2001 
# porogen end moleculeID parameter
variable v index 2000 2000 2000 2000 2000 2000 2000 2000 2000 

log log_$a.lammps
log log_1.2.lammps
