
#########################################################################
dimension 3
atom_style full

# bonded potentials
bond_style harmonic
angle_style harmonic
dihedral_style hybrid opls class2

boundary p p p
units metal
neighbor 2 bin
neigh_modify check yes

timestep 0.001

read_data data.EtOCSMethyl_2000_$a
read_data data.EtOCSMethyl_2000_2.2
  1 = max bonds/atom
  1 = max angles/atom
  1 = max dihedrals/atom
  orthogonal box = (-4 -4 -4) to (137 137 137)
  3 by 4 by 4 processor grid
  17600 atoms
  8000 bonds
  6000 angles
  4000 dihedrals
  2 = max # of 1-2 neighbors
  2 = max # of 1-3 neighbors
  2 = max # of 1-4 neighbors
  4 = max # of special neighbors

#########################################################################
# number of EtOCSMethyl precursors (referenced by moleculeID)
group precursors molecule <> $p $q
group precursors molecule <> 1 $q
group precursors molecule <> 1 2000
10000 atoms in group precursors

# number of free O atoms (referenced by atomID)
group freeO id <> $r $s
group freeO id <> 10001 $s
group freeO id <> 10001 17600
7600 atoms in group freeO

# number of porogen molecules (referenced by moleculeID)
group porogen molecule <> $t $v
group porogen molecule <> 2001 $v
group porogen molecule <> 2001 2000
0 atoms in group porogen

group active union precursors freeO porogen
17600 atoms in group active
group activematrix union precursors freeO
17600 atoms in group activematrix
group inactive subtract all active
0 atoms in group inactive
delete_atoms group inactive
Deleted 0 atoms, new total = 17600

#########################################################################
#soft potential to push the atoms apart
pair_style soft 3
pair_coeff	* * 0 500 3

thermo_style custom step temp tave press pave lx ly lz vol epair etotal

fix 1		active nvt 6000 6000 0.0100 drag 2.00
thermo		1000
run		20000
Memory usage per processor = 2.40322 Mbytes
Step Temp T_ave Press P_ave Lx Ly Lz Volume E_pair TotEng 
       0            0            0   -2.7814103   -2.7814103          141          141          141      2803221            0    11.848978 
    1000    5999.7593    2999.8796    4799.6463    2398.4325          141          141          141      2803221    184.68313    16109.553 
    2000    5987.7248     3995.828    4248.9483    3015.2711          141          141          141      2803221     117.2159    17036.393 
    3000    6002.9133    4497.5993    4455.6346     3375.362          141          141          141      2803221    96.829597    17464.014 
    4000    6012.9515    4800.6698     4053.776    3511.0448          141          141          141      2803221    80.487845    17596.178 
    5000    6019.7512      5003.85    4030.2602    3597.5807          141          141          141      2803221    61.228143    17659.053 
    6000      5998.74    5145.9771    3980.6005    3652.2978          141          141          141      2803221    70.626747     17693.75 
    7000    5997.5481    5252.4235    3956.7895    3690.3593          141          141          141      2803221    63.141256    17726.948 
    8000    6013.3426    5336.9701    3970.9684     3721.538          141          141          141      2803221    42.516792    17691.098 
    9000    6005.2781    5403.8009    4053.7288    3754.7571          141          141          141      2803221    43.844344    17725.737 
   10000    6017.1176    6005.5126    3886.9531    4143.7306          141          141          141      2803221    54.583129    17713.872 
   11000    6003.2781    6005.8645    3619.1346    4025.6794          141          141          141      2803221    42.266209     17701.48 
   12000    5987.7872    6005.8708     3749.203    3975.7049          141          141          141      2803221    44.167081    17701.094 
   13000    5990.6925    6004.6487    4099.5125    3940.0926          141          141          141      2803221    43.337616    17729.754 
   14000    6003.1208    6003.6656    3915.9315    3926.3082          141          141          141      2803221    37.815054    17680.487 
   15000    6000.0849     6001.699    4122.4624    3935.5284          141          141          141      2803221     41.64856    17707.407 
   16000    5990.0279    6000.8278    4010.6005    3938.5284          141          141          141      2803221    38.083562    17671.396 
   17000    6006.8436    6001.7573    4112.8529    3954.1348          141          141          141      2803221    41.667426    17713.079 
   18000    5974.2284    5997.8459    3968.8281    3953.9207          141          141          141      2803221    39.468628    17729.563 
   19000    6026.7676    5999.9949    4108.9034    3959.4382          141          141          141      2803221    51.116383    17712.509 
   20000    5997.8949    5998.0726    3974.0992    3968.1528          141          141          141      2803221    44.357735    17696.253 
Loop time of 41.4641 on 48 procs for 20000 steps with 17600 atoms

Pair  time (%) = 0.340153 (0.820356)
Bond  time (%) = 2.02168 (4.87574)
Neigh time (%) = 0.599663 (1.44622)
Comm  time (%) = 30.1188 (72.6384)
Outpt time (%) = 0.0273734 (0.0660171)
Other time (%) = 8.35638 (20.1533)

Nlocal:    366.667 ave 449 max 329 min
Histogram: 6 7 10 11 8 2 1 1 1 1
Nghost:    366.125 ave 409 max 304 min
Histogram: 1 2 2 3 8 8 5 10 4 5
Neighs:    381.458 ave 540 max 291 min
Histogram: 4 9 6 12 7 5 1 0 2 2

Total # of neighbors = 18310
Ave neighs/atom = 1.04034
Ave special neighs/atom = 2.04545
Neighbor list builds = 1726
Dangerous builds = 218

thermo		1
minimize		1e-4 10000 10000
Memory usage per processor = 3.56607 Mbytes
Step Temp T_ave Press P_ave Lx Ly Lz Volume E_pair TotEng 
   20000    5997.8949    5998.0726    3974.0992    3968.1528          141          141          141      2803221    44.357735    17696.253 
   20001    5997.8949    5997.5343    3324.5917    3938.6985          141          141          141      2803221   0.14882097    17038.317 
   20002    5997.8949     5998.545    4405.8755    4004.3658          141          141          141      2803221    1.8513329    15823.636 
   20003    5997.8949    5999.2653    4717.3008    4066.1446          141          141          141      2803221   0.32629126    15468.445 
   20004    5997.8949    5998.7427    5097.7092    4184.3224          141          141          141      2803221   0.30256657    15159.865 
   20005    5997.8949    5998.5237    5215.1345    4293.5896          141          141          141      2803221   0.52016476    14981.025 
   20006    5997.8949    5999.3104    5212.7507    4413.8046          141          141          141      2803221  0.061206351    14903.394 
   20007    5997.8949    5998.4155    5272.3878    4529.7581          141          141          141      2803221   0.46921721    14748.332 
   20008    5997.8949    6000.7822    5266.1696    4659.4922          141          141          141      2803221  0.049250555    14689.383 
   20009    5997.8949    5997.8949    5345.1487    4783.1168          141          141          141      2803221    1.3769518    14534.945 
   20010    5997.8949    5997.8949    5280.1797    4913.7248          141          141          141      2803221  0.015553672    14511.027 
   20011    5997.8949    5997.8949    5452.1923    5126.4849          141          141          141      2803221    4.2333855    14373.869 
   20012    5997.8949    5997.8949    5312.4593    5217.1433          141          141          141      2803221  0.069800865    14347.962 
   20013    5997.8949    5997.8949     5359.511    5281.3643          141          141          141      2803221   0.40511595    14283.861 
   20014    5997.8949    5997.8949    5319.2438    5303.5177          141          141          141      2803221 0.00078755458    14268.183 
   20015    5997.8949    5997.8949    5376.9769     5319.702          141          141          141      2803221   0.67132124     14213.61 
   20016    5997.8949    5997.8949    5356.8658    5334.1135          141          141          141      2803221   0.35285122    14184.547 
   20017    5997.8949    5997.8949    5315.9862    5338.4733          141          141          141      2803221 0.0016856738    14173.817 
   20018    5997.8949    5997.8949    5525.2394    5364.3803          141          141          141      2803221    6.9578259    14120.226 
   20019    5997.8949    5997.8949    5346.9725    5364.5627          141          141          141      2803221    1.6101295    14083.386 
   20020    5997.8949    5997.8949    5277.4404    5364.2888          141          141          141      2803221   0.38389099    14062.612 
   20021    5997.8949    5997.8949    5286.0771    5347.6772          141          141          141      2803221  0.097011808    14051.342 
   20022    5997.8949    5997.8949    5283.0086    5344.7322          141          141          141      2803221 0.0029714018    14045.545 
   20023    5997.8949    5997.8949    5361.1775    5344.8988          141          141          141      2803221    1.5158084    14022.326 
   20024    5997.8949    5997.8949    5293.1196    5342.2864          141          141          141      2803221  0.048164936    14011.199 
   20025    5997.8949    5997.8949    5282.1476    5332.8035          141          141          141      2803221  0.032030507    14003.452 
   20026    5997.8949    5997.8949     5279.548    5325.0717          141          141          141      2803221  0.016859615    13995.935 
   20027    5997.8949    5997.8949    5297.1118    5323.1842          141          141          141      2803221   0.14918347    13983.342 
   20028    5997.8949    5997.8949    5283.6684    5299.0271          141          141          141      2803221  0.074241871    13973.121 
   20029    5997.8949    5997.8949    5265.5256    5290.8825          141          141          141      2803221 0.0018322945    13968.355 
   20030    5997.8949    5997.8949     5409.483    5304.0867          141          141          141      2803221    3.9393022    13947.965 
   20031    5997.8949    5997.8949    5549.2373    5330.4027          141          141          141      2803221    9.2803415    13918.565 
   20032    5997.8949    5997.8949    5242.9163    5326.3935          141          141          141      2803221    3.2487364    13889.686 
   20033    5997.8949    5997.8949    5067.9659    5297.0724          141          141          141      2803221  0.064175935    13878.125 
   20034    5997.8949    5997.8949     5220.536     5289.814          141          141          141      2803221   0.45358764    13867.116 
   20035    5997.8949    5997.8949    5214.8223    5283.0815          141          141          141      2803221 0.0030463313    13866.135 
   20036    5997.8949    5997.8949    5242.2559    5279.3523          141          141          141      2803221   0.32069352    13860.064 
   20037    5997.8949    5997.8949    5215.3771    5271.1788          141          141          141      2803221   0.10669683    13856.585 
   20038    5997.8949    5997.8949    5254.0202     5268.214          141          141          141      2803221   0.27375703    13844.235 
   20039    5997.8949    5997.8949    5219.5279    5263.6142          141          141          141      2803221 0.00066887596    13842.556 
   20040    5997.8949    5997.8949    5214.6328    5244.1292          141          141          141      2803221  0.052381022    13838.502 
   20041    5997.8949    5997.8949    5344.5807    5223.6635          141          141          141      2803221    2.9624978    13830.559 
   20042    5997.8949    5997.8949    5365.4912     5235.921          141          141          141      2803221    5.5715608    13822.853 
   20043    5997.8949    5997.8949    5321.2153    5261.2459          141          141          141      2803221    4.5204269    13814.666 
   20044    5997.8949    5997.8949     5114.422    5250.6345          141          141          141      2803221    1.4729972    13800.962 
   20045    5997.8949    5997.8949    5066.5031    5235.8026          141          141          141      2803221  0.020803519    13796.821 
   20046    5997.8949    5997.8949    5201.5818    5231.7352          141          141          141      2803221  0.045319603    13790.776 
   20047    5997.8949    5997.8949    5207.2151     5230.919          141          141          141      2803221 0.00021024761    13789.926 
   20048    5997.8949    5997.8949    5176.9761    5223.2146          141          141          141      2803221   0.01791792     13787.77 
   20049    5997.8949    5997.8949    5252.9915    5226.5609          141          141          141      2803221    1.2837527    13783.855 
   20050    5997.8949    5997.8949    5221.9363    5227.2913          141          141          141      2803221   0.64959298    13781.124 
   20051    5997.8949    5997.8949    5199.1489    5212.7481          141          141          141      2803221   0.35093622    13779.277 
   20052    5997.8949    5997.8949    5219.6943    5198.1684          141          141          141      2803221   0.38261706    13777.347 
   20053    5997.8949    5997.8949    5198.1761    5185.8645          141          141          141      2803221  0.001313553    13776.405 
   20054    5997.8949    5997.8949    5246.5425    5199.0766          141          141          141      2803221   0.47684672    13773.747 
   20055    5997.8949    5997.8949    5232.1698    5215.6432          141          141          141      2803221  0.063308399    13772.663 
   20056    5997.8949    5997.8949     5229.019    5218.3869          141          141          141      2803221  0.019729453    13770.082 
   20057    5997.8949    5997.8949     5205.416     5218.207          141          141          141      2803221 0.0024665414    13768.985 
   20058    5997.8949    5997.8949    5216.2501    5222.1344          141          141          141      2803221    0.5469806      13767.1 
   20059    5997.8949    5997.8949    5188.9567     5215.731          141          141          141      2803221   0.33965023    13766.065 
   20060    5997.8949    5997.8949    5174.0892    5210.9463          141          141          141      2803221   0.45599293    13764.806 
   20061    5997.8949    5997.8949    5172.8399    5208.3154          141          141          141      2803221   0.61918722    13763.281 
   20062    5997.8949    5997.8949    5201.0051    5206.4464          141          141          141      2803221   0.55417427    13761.163 
   20063    5997.8949    5997.8949    5194.9375    5206.1226          141          141          141      2803221   0.24153294    13759.736 
   20064    5997.8949    5997.8949    5229.2193    5204.3902          141          141          141      2803221   0.10661226    13758.142 
   20065    5997.8949    5997.8949    5235.8561    5204.7589          141          141          141      2803221   0.30015344    13756.869 
   20066    5997.8949    5997.8949    5207.8224    5202.6392          141          141          141      2803221   0.12564547    13755.853 
   20067    5997.8949    5997.8949    5194.8064    5201.5783          141          141          141      2803221 4.8647812e-06     13755.34 
   20068    5997.8949    5997.8949    5191.7919    5199.1324          141          141          141      2803221 0.0013472453    13754.397 
   20069    5997.8949    5997.8949    5204.9762    5200.7344          141          141          141      2803221      0.23184    13752.765 
   20070    5997.8949    5997.8949    5183.8178    5201.7072          141          141          141      2803221  0.035661248    13752.221 
   20071    5997.8949    5997.8949    5212.6658    5205.6898          141          141          141      2803221   0.15933447    13751.118 
   20072    5997.8949    5997.8949    5212.3992    5206.8293          141          141          141      2803221  0.034156998     13750.71 
   20073    5997.8949    5997.8949    5208.5661    5208.1921          141          141          141      2803221  7.95973e-05    13750.414 
   20074    5997.8949    5997.8949    5201.0869    5205.3789          141          141          141      2803221 0.0025728813    13749.635 
   20075    5997.8949    5997.8949    5223.1542    5204.1087          141          141          141      2803221   0.34787092    13748.535 
   20076    5997.8949    5997.8949    5205.0586    5203.8323          141          141          141      2803221  0.060768743    13747.886 
   20077    5997.8949    5997.8949    5203.1422    5204.6659          141          141          141      2803221  0.077867629    13747.516 
   20078    5997.8949    5997.8949    5197.7283    5205.2595          141          141          141      2803221  0.032809322     13747.15 
   20079    5997.8949    5997.8949    5209.8844    5205.7503          141          141          141      2803221   0.16908072     13746.77 
   20080    5997.8949    5997.8949    5220.7332    5209.4419          141          141          141      2803221   0.21227685    13746.186 
   20081    5997.8949    5997.8949    5214.8721    5209.6625          141          141          141      2803221   0.14942027    13745.531 
   20082    5997.8949    5997.8949    5227.5137     5211.174          141          141          141      2803221   0.39150824    13744.687 
   20083    5997.8949    5997.8949    5216.4262      5211.96          141          141          141      2803221   0.25516642    13743.714 
   20084    5997.8949    5997.8949    5202.5791    5212.1092          141          141          141      2803221    0.1254004    13743.036 
   20085    5997.8949    5997.8949    5185.7618      5208.37          141          141          141      2803221 0.00045059693     13742.71 
   20086    5997.8949    5997.8949    5200.0663    5207.8707          141          141          141      2803221   0.01027516    13742.232 
   20087    5997.8949    5997.8949     5221.362    5209.6927          141          141          141      2803221  0.060700249    13741.706 
   20088    5997.8949    5997.8949    5228.9113     5212.811          141          141          141      2803221  0.085832594     13741.25 
   20089    5997.8949    5997.8949    5223.6701    5214.1896          141          141          141      2803221  0.062903574    13740.777 
   20090    5997.8949    5997.8949    5213.3925    5213.4555          141          141          141      2803221  0.055982191    13740.372 
   20091    5997.8949    5997.8949    5196.4868     5211.617          141          141          141      2803221   0.05821019     13740.03 
   20092    5997.8949    5997.8949    5204.0639     5209.272          141          141          141      2803221   0.16982701    13739.551 
   20093    5997.8949    5997.8949    5205.6119    5208.1906          141          141          141      2803221     0.220717    13738.975 
   20094    5997.8949    5997.8949    5199.0127    5207.8339          141          141          141      2803221   0.12728053    13738.535 
   20095    5997.8949    5997.8949    5206.9202    5209.9498          141          141          141      2803221    0.1164499    13738.085 
   20096    5997.8949    5997.8949    5206.7365    5210.6168          141          141          141      2803221  0.021045203    13737.608 
   20097    5997.8949    5997.8949    5212.1216    5209.6928          141          141          141      2803221  0.083433332    13737.085 
   20098    5997.8949    5997.8949    5204.4899    5207.2506          141          141          141      2803221  0.052772052    13736.765 
   20099    5997.8949    5997.8949    5202.2983    5205.1134          141          141          141      2803221   0.16763624    13736.297 
   20100    5997.8949    5997.8949    5188.1626    5202.5904          141          141          141      2803221   0.02534044    13735.837 
   20101    5997.8949    5997.8949     5182.877    5201.2295          141          141          141      2803221 8.3057792e-05    13735.663 
   20102    5997.8949    5997.8949    5205.5635    5201.3794          141          141          141      2803221 0.0070233137    13735.038 
   20103    5997.8949    5997.8949    5227.1967    5203.5379          141          141          141      2803221   0.15082982    13734.396 
   20104    5997.8949    5997.8949    5213.5326    5204.9899          141          141          141      2803221 0.00069814871    13734.113 
   20105    5997.8949    5997.8949    5189.5548    5203.2534          141          141          141      2803221  0.004066963    13733.657 
   20106    5997.8949    5997.8949    5192.3801    5201.8177          141          141          141      2803221   0.14365844    13733.215 
   20107    5997.8949    5997.8949    5180.7792    5198.6835          141          141          141      2803221  0.030681222    13732.795 
   20108    5997.8949    5997.8949    5203.3626    5198.5707          141          141          141      2803221  0.094487523    13732.014 
   20109    5997.8949    5997.8949    5203.6738    5198.7083          141          141          141      2803221  0.052935087    13731.743 
   20110    5997.8949    5997.8949    5207.1935    5200.6114          141          141          141      2803221  0.020355989    13731.504 
   20111    5997.8949    5997.8949    5216.0643    5203.9301          141          141          141      2803221   0.11825389    13731.221 
   20112    5997.8949    5997.8949    5211.7111    5204.5449          141          141          141      2803221  0.078049518    13730.909 
   20113    5997.8949    5997.8949    5203.7389    5202.1991          141          141          141      2803221  0.065609926    13730.554 
   20114    5997.8949    5997.8949    5202.0297    5201.0488          141          141          141      2803221  0.097282959    13730.102 
   20115    5997.8949    5997.8949    5190.4697    5201.1403          141          141          141      2803221  0.022201669    13729.875 
   20116    5997.8949    5997.8949    5201.9148    5202.0938          141          141          141      2803221  0.045468059    13729.587 
   20117    5997.8949    5997.8949    5210.9304    5205.1089          141          141          141      2803221  0.042743959    13729.381 
   20118    5997.8949    5997.8949      5202.99    5205.0716          141          141          141      2803221 0.00017342692     13729.26 
   20119    5997.8949    5997.8949    5191.7625    5203.8805          141          141          141      2803221 0.00067169869    13728.987 
   20120    5997.8949    5997.8949    5195.7525    5202.7364          141          141          141      2803221  0.036768099      13728.5 
   20121    5997.8949    5997.8949    5190.1002      5200.14          141          141          141      2803221  0.013375842    13728.302 
   20122    5997.8949    5997.8949     5200.258    5198.9947          141          141          141      2803221  0.097169648    13728.039 
   20123    5997.8949    5997.8949    5202.0458    5198.8254          141          141          141      2803221  0.012323188    13727.805 
   20124    5997.8949    5997.8949    5216.7791    5200.3003          141          141          141      2803221   0.09756041    13727.543 
   20125    5997.8949    5997.8949    5223.5479    5203.6081          141          141          141      2803221  0.097793998    13727.269 
   20126    5997.8949    5997.8949    5226.2676    5206.0434          141          141          141      2803221   0.13494597    13726.823 
   20127    5997.8949    5997.8949    5215.3899    5206.4894          141          141          141      2803221  0.060044668    13726.578 
   20128    5997.8949    5997.8949    5207.7156    5206.9619          141          141          141      2803221   0.07189433    13726.115 
   20129    5997.8949    5997.8949    5193.9865    5207.1843          141          141          141      2803221 0.0077541866    13725.901 
   20130    5997.8949    5997.8949    5197.6694     5207.376          141          141          141      2803221  0.017974345    13725.662 
   20131    5997.8949    5997.8949    5208.8823    5209.2542          141          141          141      2803221  0.064856937    13725.483 
   20132    5997.8949    5997.8949    5209.1093    5210.1393          141          141          141      2803221  0.042580241     13725.26 
   20133    5997.8949    5997.8949    5208.2127     5210.756          141          141          141      2803221  0.040868894    13724.935 
   20134    5997.8949    5997.8949    5202.8858    5209.3667          141          141          141      2803221  0.020607042    13724.752 
   20135    5997.8949    5997.8949    5205.5174    5207.5636          141          141          141      2803221  0.081162826    13724.349 
   20136    5997.8949    5997.8949    5197.8664    5204.7235          141          141          141      2803221  0.062186583    13724.119 
   20137    5997.8949    5997.8949    5198.6096    5203.0455          141          141          141      2803221  0.098506303    13723.897 
   20138    5997.8949    5997.8949    5204.6088    5202.7348          141          141          141      2803221  0.055145899    13723.478 
   20139    5997.8949    5997.8949    5198.2656    5203.1627          141          141          141      2803221   0.01496232    13723.232 
   20140    5997.8949    5997.8949    5199.3434    5203.3301          141          141          141      2803221  0.013739123    13722.938 
   20141    5997.8949    5997.8949    5204.3978    5202.8817          141          141          141      2803221  0.050097426    13722.551 
   20142    5997.8949    5997.8949    5194.6322     5201.434          141          141          141      2803221  0.039025596    13722.372 
   20143    5997.8949    5997.8949    5199.1591    5200.5286          141          141          141      2803221  0.027126913    13722.037 
   20144    5997.8949    5997.8949    5197.0434    5199.9444          141          141          141      2803221  0.019303429    13721.837 
   20145    5997.8949    5997.8949    5200.9959    5199.4922          141          141          141      2803221  0.065858618    13721.606 
   20146    5997.8949    5997.8949    5205.9212    5200.2977          141          141          141      2803221  0.032009364    13721.356 
   20147    5997.8949    5997.8949     5206.755    5201.1122          141          141          141      2803221  0.092511112    13720.878 
   20148    5997.8949    5997.8949    5194.4201    5200.0934          141          141          141      2803221  0.020795045    13720.636 
   20149    5997.8949    5997.8949    5191.1097    5199.3778          141          141          141      2803221 0.00059490057     13720.27 
   20150    5997.8949    5997.8949    5198.4606    5199.2895          141          141          141      2803221  0.021519254     13719.95 
   20151    5997.8949    5997.8949    5198.7381    5198.7235          141          141          141      2803221 0.0063834396    13719.843 
   20152    5997.8949    5997.8949    5198.4273     5199.103          141          141          141      2803221  0.013014871    13719.422 
   20153    5997.8949    5997.8949    5195.8337    5198.7705          141          141          141      2803221  0.013167032     13719.28 
   20154    5997.8949    5997.8949    5198.2884     5198.895          141          141          141      2803221  0.025608453    13719.004 
   20155    5997.8949    5997.8949    5197.4818    5198.5436          141          141          141      2803221  0.028781107    13718.819 
   20156    5997.8949    5997.8949    5196.5624    5197.6077          141          141          141      2803221  0.031916789    13718.559 
   20157    5997.8949    5997.8949    5198.9055    5196.8228          141          141          141      2803221  0.034719225    13718.362 
   20158    5997.8949    5997.8949    5202.3959    5197.6204          141          141          141      2803221  0.023806602      13718.2 
   20159    5997.8949    5997.8949    5201.3329    5198.6427          141          141          141      2803221  0.022599738    13718.017 
   20160    5997.8949    5997.8949    5201.9702    5198.9936          141          141          141      2803221  0.028056072    13717.813 
   20161    5997.8949    5997.8949     5196.814    5198.8012          141          141          141      2803221  0.015090466    13717.691 
   20162    5997.8949    5997.8949    5196.7426    5198.6328          141          141          141      2803221  0.014151545    13717.542 
   20163    5997.8949    5997.8949    5202.7931    5199.3287          141          141          141      2803221  0.034370207    13717.378 
   20164    5997.8949    5997.8949    5202.6077    5199.7606          141          141          141      2803221  0.019471975    13717.246 
   20165    5997.8949    5997.8949    5201.4382    5200.1563          141          141          141      2803221  0.015851533    13717.123 
   20166    5997.8949    5997.8949     5197.448    5200.2448          141          141          141      2803221 0.0095904314    13716.994 
   20167    5997.8949    5997.8949    5197.0878    5200.0631          141          141          141      2803221  0.010784238    13716.816 
   20168    5997.8949    5997.8949    5196.6334    5199.4868          141          141          141      2803221  0.018418576    13716.735 
   20169    5997.8949    5997.8949    5197.2033    5199.0738          141          141          141      2803221 0.0063652075    13716.588 
   20170    5997.8949    5997.8949    5198.8528    5198.7621          141          141          141      2803221 0.0096193664    13716.393 
   20171    5997.8949    5997.8949     5200.851    5199.1658          141          141          141      2803221  0.029056887    13716.204 
   20172    5997.8949    5997.8949    5198.7961    5199.3711          141          141          141      2803221  0.014814762    13716.091 
   20173    5997.8949    5997.8949    5201.3894    5199.2308          141          141          141      2803221  0.038941607    13715.938 
   20174    5997.8949    5997.8949    5197.9816    5198.7682          141          141          141      2803221  0.011602656    13715.815 
   20175    5997.8949    5997.8949    5202.1783    5198.8422          141          141          141      2803221  0.037243749    13715.599 
   20176    5997.8949    5997.8949     5200.168    5199.1142          141          141          141      2803221  0.015432531    13715.505 
   20177    5997.8949    5997.8949    5201.0799    5199.5134          141          141          141      2803221  0.032623841    13715.337 
   20178    5997.8949    5997.8949    5197.6343    5199.6135          141          141          141      2803221  0.015507848    13715.249 
   20179    5997.8949    5997.8949    5198.2657    5199.7197          141          141          141      2803221  0.020854648    13715.117 
   20180    5997.8949    5997.8949    5199.1224    5199.7467          141          141          141      2803221   0.02235618    13715.015 
   20181    5997.8949    5997.8949    5198.6785    5199.5294          141          141          141      2803221  0.027348402    13714.889 
   20182    5997.8949    5997.8949    5201.0825    5199.7581          141          141          141      2803221   0.02669162    13714.775 
   20183    5997.8949    5997.8949    5198.4559    5199.4647          141          141          141      2803221  0.013452055     13714.64 
   20184    5997.8949    5997.8949    5198.8753    5199.5541          141          141          141      2803221  0.024154601    13714.506 
   20185    5997.8949    5997.8949    5197.5003    5199.0863          141          141          141      2803221  0.016191445      13714.4 
   20186    5997.8949    5997.8949    5198.1489    5198.8844          141          141          141      2803221  0.022210271    13714.274 
   20187    5997.8949    5997.8949    5196.9142    5198.4678          141          141          141      2803221  0.013623168     13714.19 
   20188    5997.8949    5997.8949    5201.3041    5198.8348          141          141          141      2803221  0.029987239    13714.083 
   20189    5997.8949    5997.8949     5196.173    5198.6255          141          141          141      2803221 0.0064617602    13714.016 
   20190    5997.8949    5997.8949    5197.9006    5198.5033          141          141          141      2803221 0.0092922492    13713.872 
   20191    5997.8949    5997.8949    5203.2035    5198.9558          141          141          141      2803221  0.042575437    13713.727 
   20192    5997.8949    5997.8949    5194.0511    5198.2527          141          141          141      2803221 0.0025976687    13713.609 
   20193    5997.8949    5997.8949    5198.8191     5198.289          141          141          141      2803221 0.0099784439    13713.477 
   20194    5997.8949    5997.8949    5198.0006    5198.2015          141          141          141      2803221 0.0036774004    13713.385 
   20195    5997.8949    5997.8949    5203.2208    5198.7736          141          141          141      2803221  0.023697229    13713.162 
   20196    5997.8949    5997.8949    5195.7146    5198.5302          141          141          141      2803221 0.0028245177    13713.109 
   20197    5997.8949    5997.8949    5197.1869    5198.5574          141          141          141      2803221 0.0060445069    13712.987 
   20198    5997.8949    5997.8949    5197.0011    5198.1271          141          141          141      2803221 0.0046091359    13712.919 
   20199    5997.8949    5997.8949    5199.4349    5198.4533          141          141          141      2803221  0.014785092    13712.737 
   20200    5997.8949    5997.8949    5196.5604    5198.3193          141          141          141      2803221 0.0059036248    13712.675 
   20201    5997.8949    5997.8949    5198.8869    5197.8877          141          141          141      2803221  0.010967889    13712.512 
   20202    5997.8949    5997.8949    5199.7982    5198.4624          141          141          141      2803221  0.009436381    13712.451 
   20203    5997.8949    5997.8949    5203.1605    5198.8965          141          141          141      2803221  0.024670624    13712.323 
   20204    5997.8949    5997.8949    5198.0738    5198.9038          141          141          141      2803221 0.0075731031    13712.252 
   20205    5997.8949    5997.8949    5200.0987    5198.5916          141          141          141      2803221  0.013969524    13712.161 
   20206    5997.8949    5997.8949    5199.7109    5198.9912          141          141          141      2803221  0.010922756    13712.113 
   20207    5997.8949    5997.8949    5200.5103    5199.3236          141          141          141      2803221  0.012584898     13712.03 
   20208    5997.8949    5997.8949    5201.3867    5199.7621          141          141          141      2803221  0.014722696    13711.975 
   20209    5997.8949    5997.8949    5198.1951    5199.6381          141          141          141      2803221 0.0068837159    13711.903 
   20210    5997.8949    5997.8949    5200.1567    5199.9978          141          141          141      2803221  0.016727226    13711.835 
   20211    5997.8949    5997.8949    5199.4544    5200.0545          141          141          141      2803221  0.009968731    13711.783 
   20212    5997.8949    5997.8949    5201.0485    5200.1796          141          141          141      2803221  0.019256255    13711.716 
   20213    5997.8949    5997.8949    5198.8278    5199.7463          141          141          141      2803221  0.011627637    13711.653 
   20214    5997.8949    5997.8949    5200.0123    5199.9401          141          141          141      2803221  0.012965859      13711.6 
   20215    5997.8949    5997.8949    5200.4327    5199.9735          141          141          141      2803221  0.012688584     13711.55 
   20216    5997.8949    5997.8949    5199.8714    5199.9896          141          141          141      2803221   0.01097148    13711.486 
   20217    5997.8949    5997.8949    5201.1695    5200.0555          141          141          141      2803221  0.018916093    13711.424 
   20218    5997.8949    5997.8949    5199.4814     5199.865          141          141          141      2803221  0.011137551    13711.377 
   20219    5997.8949    5997.8949    5199.7079    5200.0163          141          141          141      2803221  0.014236565    13711.329 
   20220    5997.8949    5997.8949    5199.3644     5199.937          141          141          141      2803221  0.012032125    13711.274 
   20221    5997.8949    5997.8949    5198.7027    5199.8619          141          141          141      2803221  0.013356051    13711.212 
   20222    5997.8949    5997.8949    5198.8977    5199.6468          141          141          141      2803221  0.011182776    13711.167 
   20223    5997.8949    5997.8949    5197.7801     5199.542          141          141          141      2803221 0.0087137658     13711.12 
   20224    5997.8949    5997.8949    5198.2235    5199.3631          141          141          141      2803221  0.011361186    13711.056 
   20225    5997.8949    5997.8949    5198.7699    5199.1969          141          141          141      2803221  0.010106916    13711.014 
   20226    5997.8949    5997.8949    5198.5062    5199.0603          141          141          141      2803221  0.010311703    13710.954 
   20227    5997.8949    5997.8949    5197.2261     5198.666          141          141          141      2803221 0.0071608973    13710.913 
   20228    5997.8949    5997.8949    5198.0375    5198.5216          141          141          141      2803221 0.0074207861    13710.836 
   20229    5997.8949    5997.8949    5199.3644    5198.4873          141          141          141      2803221  0.014014775    13710.793 
   20230    5997.8949    5997.8949    5198.1421     5198.365          141          141          141      2803221 0.0065238951    13710.748 
   20231    5997.8949    5997.8949    5199.6354    5198.4583          141          141          141      2803221  0.012177302    13710.708 
   20232    5997.8949    5997.8949    5198.4122    5198.4097          141          141          141      2803221  0.011567876    13710.664 
   20233    5997.8949    5997.8949    5198.4586    5198.4776          141          141          141      2803221  0.011908574    13710.623 
   20234    5997.8949    5997.8949    5198.3325    5198.4885          141          141          141      2803221  0.010170482    13710.589 
   20235    5997.8949    5997.8949    5198.3767    5198.4492          141          141          141      2803221  0.010666705    13710.549 
   20236    5997.8949    5997.8949    5198.3643     5198.435          141          141          141      2803221 0.0086448335    13710.516 
   20237    5997.8949    5997.8949    5198.6866     5198.581          141          141          141      2803221 0.0085505179    13710.468 
   20238    5997.8949    5997.8949    5198.4882    5198.6261          141          141          141      2803221  0.010063008    13710.435 
   20239    5997.8949    5997.8949    5198.5127    5198.5409          141          141          141      2803221  0.012541624    13710.401 
   20240    5997.8949    5997.8949    5196.7115    5198.3979          141          141          141      2803221 0.0088791581    13710.356 
   20241    5997.8949    5997.8949    5198.3605    5198.2704          141          141          141      2803221 0.0073852091    13710.327 
   20242    5997.8949    5997.8949    5197.9712    5198.2263          141          141          141      2803221 0.0065505325     13710.28 
   20243    5997.8949    5997.8949    5197.6766    5198.1481          141          141          141      2803221 0.0087697455    13710.244 
   20244    5997.8949    5997.8949    5198.5043    5198.1653          141          141          141      2803221 0.0091357898    13710.215 
   20245    5997.8949    5997.8949    5198.1058    5198.1382          141          141          141      2803221  0.010894913    13710.183 
   20246    5997.8949    5997.8949    5197.9106    5198.0928          141          141          141      2803221 0.0070657478    13710.149 
   20247    5997.8949    5997.8949    5197.2157    5197.9457          141          141          141      2803221 0.0060292468    13710.113 
   20248    5997.8949    5997.8949    5199.7177    5198.0687          141          141          141      2803221  0.010170596    13710.075 
   20249    5997.8949    5997.8949    5197.4348    5197.9609          141          141          141      2803221 0.0076168507    13710.047 
   20250    5997.8949    5997.8949    5198.6181    5198.1515          141          141          141      2803221  0.009990478     13710.02 
   20251    5997.8949    5997.8949     5197.958    5198.1113          141          141          141      2803221 0.0075288244    13709.993 
   20252    5997.8949    5997.8949    5199.0627    5198.2204          141          141          141      2803221 0.0063031506    13709.967 
   20253    5997.8949    5997.8949    5199.2254    5198.3753          141          141          141      2803221  0.010291841     13709.93 
   20254    5997.8949    5997.8949    5198.1783    5198.3427          141          141          141      2803221 0.0064058256    13709.907 
   20255    5997.8949    5997.8949    5198.5535    5198.3875          141          141          141      2803221 0.0081590582    13709.883 
   20256    5997.8949    5997.8949    5199.1842    5198.5148          141          141          141      2803221 0.0083207854    13709.858 
   20257    5997.8949    5997.8949    5197.6842    5198.5617          141          141          141      2803221 0.0061846927    13709.837 
   20258    5997.8949    5997.8949    5197.9031    5198.3802          141          141          141      2803221 0.0074979283    13709.807 
   20259    5997.8949    5997.8949    5198.3981    5198.4765          141          141          141      2803221 0.0060861714    13709.784 
   20260    5997.8949    5997.8949    5198.6024     5198.475          141          141          141      2803221 0.0073334763    13709.758 
   20261    5997.8949    5997.8949    5198.3392    5198.5131          141          141          141      2803221  0.005550054     13709.74 
   20262    5997.8949    5997.8949    5198.6379    5198.4706          141          141          141      2803221  0.005756202    13709.713 
   20263    5997.8949    5997.8949    5198.5015    5198.3982          141          141          141      2803221 0.0059280754    13709.688 
   20264    5997.8949    5997.8949    5198.6287    5198.4433          141          141          141      2803221 0.0061040214    13709.666 
   20265    5997.8949    5997.8949     5198.202    5198.4081          141          141          141      2803221 0.0073753149    13709.643 
   20266    5997.8949    5997.8949    5198.1827     5198.308          141          141          141      2803221 0.0043659546    13709.621 
   20267    5997.8949    5997.8949    5198.2016    5198.3597          141          141          141      2803221 0.0055578164    13709.604 
   20268    5997.8949    5997.8949    5198.4601    5198.4154          141          141          141      2803221 0.0063058917     13709.58 
   20269    5997.8949    5997.8949     5198.522    5198.4278          141          141          141      2803221 0.0050766723    13709.561 
   20270    5997.8949    5997.8949    5198.5369    5198.4213          141          141          141      2803221 0.0056642704    13709.544 
   20271    5997.8949    5997.8949    5198.2456    5198.4119          141          141          141      2803221 0.0075264939    13709.523 
   20272    5997.8949    5997.8949    5197.8221    5198.3303          141          141          141      2803221 0.0037969614    13709.505 
   20273    5997.8949    5997.8949    5198.2048    5198.3006          141          141          141      2803221 0.0051413379     13709.49 
   20274    5997.8949    5997.8949    5198.1748    5198.2553          141          141          141      2803221 0.0042343327    13709.473 
   20275    5997.8949    5997.8949    5199.1719    5198.3522          141          141          141      2803221  0.004847344    13709.456 
   20276    5997.8949    5997.8949    5199.2762    5198.4616          141          141          141      2803221 0.0064369031     13709.44 
   20277    5997.8949    5997.8949    5198.5873    5198.5002          141          141          141      2803221  0.005343319    13709.423 
   20278    5997.8949    5997.8949     5198.078    5198.4619          141          141          141      2803221 0.0055493237    13709.405 
   20279    5997.8949    5997.8949    5197.9515    5198.4049          141          141          141      2803221 0.0040839345    13709.391 
   20280    5997.8949    5997.8949    5197.7263    5198.3238          141          141          141      2803221 0.0041882258    13709.372 
   20281    5997.8949    5997.8949    5198.2114    5198.3204          141          141          141      2803221 0.0040153808     13709.36 
   20282    5997.8949    5997.8949    5198.7357    5198.4118          141          141          141      2803221 0.0049412915    13709.348 
   20283    5997.8949    5997.8949    5199.0645    5198.4978          141          141          141      2803221 0.0067185651    13709.331 
   20284    5997.8949    5997.8949    5198.7489    5198.5552          141          141          141      2803221 0.0042577632    13709.315 
   20285    5997.8949    5997.8949    5198.0159    5198.4396          141          141          141      2803221 0.0038972981    13709.302 
   20286    5997.8949    5997.8949    5197.7321    5198.2852          141          141          141      2803221 0.0033373421    13709.283 
   20287    5997.8949    5997.8949    5197.9854     5198.225          141          141          141      2803221 0.0036126835    13709.274 
   20288    5997.8949    5997.8949    5198.5705    5198.2742          141          141          141      2803221 0.0047017495    13709.262 
   20289    5997.8949    5997.8949    5198.3453    5198.3136          141          141          141      2803221 0.0036948669    13709.251 
   20290    5997.8949    5997.8949    5198.4136    5198.3823          141          141          141      2803221 0.0044779826    13709.235 
   20291    5997.8949    5997.8949    5198.7888    5198.4401          141          141          141      2803221 0.0045902675     13709.22 
   20292    5997.8949    5997.8949    5198.1624    5198.3827          141          141          141      2803221 0.0024964757    13709.208 
   20293    5997.8949    5997.8949    5197.9764    5198.2739          141          141          141      2803221 0.0037733374    13709.198 
   20294    5997.8949    5997.8949    5198.1934    5198.2184          141          141          141      2803221 0.0027481547    13709.188 
   20295    5997.8949    5997.8949    5198.6504    5198.2818          141          141          141      2803221 0.0038232507    13709.179 
   20296    5997.8949    5997.8949    5198.7632     5198.385          141          141          141      2803221 0.0038323463    13709.168 
   20297    5997.8949    5997.8949    5198.8937    5198.4758          141          141          141      2803221 0.0036667771    13709.156 
   20298    5997.8949    5997.8949    5198.9197    5198.5107          141          141          141      2803221 0.0042487261    13709.145 
   20299    5997.8949    5997.8949    5198.9888    5198.5751          141          141          141      2803221 0.0040793889    13709.133 
   20300    5997.8949    5997.8949    5198.5485    5198.5885          141          141          141      2803221 0.0028764879    13709.124 
   20301    5997.8949    5997.8949    5197.6135     5198.471          141          141          141      2803221 0.0026428583    13709.116 
   20302    5997.8949    5997.8949    5198.7555    5198.5303          141          141          141      2803221 0.0034526745    13709.107 
   20303    5997.8949    5997.8949    5197.9396    5198.5266          141          141          141      2803221 0.0026334149    13709.098 
   20304    5997.8949    5997.8949    5197.8818    5198.4955          141          141          141      2803221 0.0024418868    13709.089 
   20305    5997.8949    5997.8949    5198.5629    5198.4867          141          141          141      2803221 0.0029373032    13709.081 
   20306    5997.8949    5997.8949    5199.1241    5198.5228          141          141          141      2803221 0.0031361465    13709.072 
   20307    5997.8949    5997.8949    5199.4926    5198.5827          141          141          141      2803221 0.0042395331    13709.061 
   20308    5997.8949    5997.8949    5198.1579    5198.5065          141          141          141      2803221 0.0030202338    13709.053 
   20309    5997.8949    5997.8949    5198.1348    5198.4211          141          141          141      2803221 0.0024823006    13709.045 
   20310    5997.8949    5997.8949    5198.2052    5198.3868          141          141          141      2803221 0.0035307289    13709.038 
   20311    5997.8949    5997.8949     5197.772    5198.4026          141          141          141      2803221 0.0028181619    13709.031 
   20312    5997.8949    5997.8949    5197.6764    5198.2947          141          141          141      2803221 0.0017261388    13709.025 
   20313    5997.8949    5997.8949    5195.3576    5198.0365          141          141          141      2803221 2.4488047e-06    13709.023 
Loop time of 5.37531 on 48 procs for 313 steps with 17600 atoms

Minimization stats:
  E initial, next-to-last, final = 4051.95 64.7181 64.7158
  Gradient 2-norm init/final= 678.86 0.812883
  Gradient inf-norm init/final= 54.893 0.0493407
  Iterations = 313
  Force evaluations = 2002

Pair  time (%) = 0.0732155 (1.36207)
Bond  time (%) = 0.21465 (3.99326)
Neigh time (%) = 0.000353009 (0.00656722)
Comm  time (%) = 2.65337 (49.3622)
Outpt time (%) = 0.421272 (7.83716)
Other time (%) = 2.01245 (37.4387)

Nlocal:    366.667 ave 443 max 328 min
Histogram: 4 9 6 14 8 3 1 1 1 1
Nghost:    365.625 ave 410 max 303 min
Histogram: 1 0 4 5 7 9 5 12 2 3
Neighs:    379.083 ave 533 max 290 min
Histogram: 4 9 4 12 10 5 0 2 0 2

Total # of neighbors = 18196
Ave neighs/atom = 1.03386
Ave special neighs/atom = 2.04545
Neighbor list builds = 1
Dangerous builds = 0

#########################################################################
# simulated annealing to create structure
pair_style sw
pair_coeff * * OCS.sw Si O C

thermo		100

unfix		1
fix		1 active npt 9000 3000 0.0100 xyz 90000 60000 0.1000 drag 2.00
run		50000
Memory usage per processor = 3.09487 Mbytes
Step Temp T_ave Press P_ave Lx Ly Lz Volume E_pair TotEng 
   20313    5997.8949    5997.8949    11319.852    5198.0365          141          141          141      2803221    3689.2681    17398.291 
   20400    9105.3176    6308.6371    81909.292    12869.178    82.636683    82.636683    82.636683    564311.15   -2117.3402    23420.428 
   20500    8988.2219    6607.6699     89315.58    21280.879    78.636365    78.636365    78.636365    486261.94   -5277.1331    20534.675 
   20600    8958.7045    6903.7508     87329.67    29493.934    77.974488    77.974488    77.974488     474086.5   -6226.9878    19753.418 
   20700    9000.6343    7204.0248    91379.512    38111.936    77.608736    77.608736    77.608736     467446.4   -6579.2569     19662.06 
   20800     8954.161    7499.6514    90579.211    46650.041    77.541077    77.541077    77.541077    466224.92   -6817.1834    19216.666 
   20900    8956.2121    7795.4831    87920.588    54922.286    77.342654    77.342654    77.342654    462654.95   -6815.4111    19283.633 
   21000    8919.5934    8087.6529    90239.376    63426.404    77.296744    77.296744    77.296744    461831.55   -6933.2592    19064.275 
   21100    8931.9393    8381.0574    88586.934     71765.32    77.368545    77.368545    77.368545    463119.74   -6880.8513    19145.195 
   21200    8856.7386    8666.9418    88296.588    80075.211    77.315736    77.315736    77.315736    462172.06   -7019.6929    18904.558 
   21300     8886.865    8955.8388    85868.098    88142.485    77.387479    77.387479    77.387479    463459.82   -7013.4632     18847.69 
   21400    8907.5163    8936.0586    90059.756    88957.531    77.364132    77.364132    77.364132     463040.5   -6858.6213    19099.474 
   21500    8868.6496    8924.1014    90617.729    89087.746    77.250057    77.250057    77.250057    460995.22   -6947.3798    19017.343 
   21600    8872.0457    8915.4355    88811.746    89235.954    77.220516    77.220516    77.220516    460466.56   -7089.3015    18778.414 
   21700    8879.0103    8903.2731    87676.461    88865.649    77.281484    77.281484    77.281484    461558.08   -7016.7519    18818.067 
   21800     8782.907    8886.1477    88206.011    88628.329    77.149351    77.149351    77.149351    459194.66    -7143.144    18595.611 
   21900    8805.3931    8871.0658    89647.799     88801.05    77.275603    77.275603    77.275603    461452.71   -7063.0834    18574.771 
   22000    8740.9016    8853.1966    86801.583    88457.271    77.262019    77.262019    77.262019    461209.42   -7098.8727    18484.859 
   22100    8766.8916    8836.6919    92170.887    88815.666    77.123722    77.123722    77.123722    458737.18    -7133.846    18495.023 
   22200    8784.8075    8829.4988    90967.085    89082.716    77.140504    77.140504    77.140504     459036.7   -7187.9922    18517.746 
   22300    8743.3775      8815.15    87394.316    89235.337    77.204734    77.204734    77.204734     460184.3   -7219.7109     18393.76 
   22400    8715.8996    8795.9883    91862.677    89415.629    77.140608    77.140608    77.140608    459038.56   -7039.2194    18381.323 
   22500    8747.7214    8783.8955    85454.563    88899.313    77.294117    77.294117    77.294117    461784.46   -7023.0374     18568.72 
   22600    8683.5479    8765.0457    92432.669    89261.405    77.142996    77.142996    77.142996    459081.19    -7128.177    18284.711 
   22700    8684.3368    8745.5784    88954.758    89389.235    77.133362    77.133362    77.133362    458909.22   -7203.2887    18169.439 
   22800    8718.9812    8739.1858    90216.847    89590.318    77.144065    77.144065    77.144065    459100.29   -7077.7535    18402.147 
   22900    8658.4535    8724.4919    85245.863    89150.125    77.071817    77.071817    77.071817     457811.6   -7038.9882    18380.732 
   23000    8697.6945    8720.1711    90917.961    89561.763    77.055295    77.055295    77.055295    457517.24   -7079.0355    18304.423 
   23100    8630.6217    8706.5442    88941.161     89238.79    77.029496    77.029496    77.029496    457057.85   -7169.9235    18126.616 
   23200    8661.3013    8694.1935    89180.038    89060.085    77.115859    77.115859    77.115859    458596.88   -7299.8466    18002.986 
   23300    8644.1619     8684.272    90419.665     89362.62    76.980796    76.980796    76.980796    456191.51   -7371.3478    17765.669 
   23400    8635.5799      8676.24    88412.054    89017.558    77.079878    77.079878    77.079878    457955.26   -7353.5045    17791.163 
   23500    8671.8991    8668.6578    88963.733    89368.475    77.016609    77.016609    77.016609    456828.49   -7414.5924    17881.504 
   23600    8639.7545    8664.2784    88685.319     88993.74    77.099617    77.099617    77.099617    458307.18   -7241.1288    17935.177 
   23700     8557.817    8651.6264    87337.651    88832.029    77.127864    77.127864    77.127864     458811.1    -7247.733    17827.436 
   23800    8572.6909    8636.9974    82800.521    88090.397    77.156611    77.156611    77.156611     459324.3    -7329.391    17687.345 
   23900    8569.7415    8628.1262    88242.672    88390.078    77.048352    77.048352    77.048352    457393.58   -7246.7206    17716.329 
   24000    8534.9254    8611.8493    85812.371    87879.519    77.128029    77.128029    77.128029    458814.04   -7245.4042    17638.597 
   24100    8502.3698    8599.0241    87120.939    87697.496    77.033534    77.033534    77.033534    457129.74   -7307.0936    17597.484 
   24200     8531.452    8586.0392    90107.367    87790.229    77.057267    77.057267    77.057267    457552.36   -7406.5045    17528.738 
   24300    8521.6775    8573.7907    88213.787    87569.641    76.903389    76.903389    76.903389    454816.74   -7398.7054    17471.611 
   24400    8537.1885    8563.9516    89655.458    87693.982    77.055264    77.055264    77.055264    457516.68    -7241.901    17623.927 
   24500    8442.7449    8541.0362    87251.837    87522.792    77.000017    77.000017    77.000017    456533.31   -7355.4626    17392.319 
   24600    8455.6647    8522.6272    89890.166    87643.277    76.895267    76.895267    76.895267    454672.64    -7298.369    17365.077 
   24700    8466.3892    8513.4844    89228.473    87832.359    76.852827    76.852827    76.852827    453920.24   -7511.4707    17227.521 
   24800    8413.9959    8497.6149    86587.001    88211.007    76.883251    76.883251    76.883251    454459.53    -7510.761    17122.703 
   24900    8480.3262    8488.6734    87632.782    88150.018    76.985484    76.985484    76.985484    456274.86   -7406.7459    17288.482 
   25000     8427.604    8477.9413    85905.801    88159.361    76.950729    76.950729    76.950729    455657.17   -7476.5754     17225.86 
   25100     8479.501    8475.6544    86995.461    88146.813    76.830984    76.830984    76.830984    453533.31   -7386.7614    17280.329 
   25200    8431.9453    8465.7037    89676.955    88103.772      76.8676      76.8676      76.8676    454182.04   -7553.5609    17021.298 
   25300     8466.211    8460.1571    86672.021    87949.595    76.900187    76.900187    76.900187    454759.93   -7657.2737    17055.426 
   25400     8464.828     8452.921     83939.37    87377.987     76.84045     76.84045     76.84045    453700.97   -7575.6992    17015.311 
   25500    8354.4552    8444.0921    87848.133    87437.616    76.949987    76.949987    76.949987    455643.99   -7589.4148    16870.635 
   25600    8332.4272    8431.7683    86808.332    87129.433     76.89851     76.89851     76.89851    454730.18   -7597.3489    16803.113 
   25700    8332.4236    8418.3717    90341.512    87240.737    76.867755    76.867755    76.867755     454184.8   -7547.5254     16804.86 
   25800    8426.2144    8419.5936    88357.514    87417.788    76.709021    76.709021    76.709021     451376.9   -7666.1329    16829.718 
   25900    8360.8578    8407.6468    87574.861    87411.996    76.716063    76.716063    76.716063    451501.21   -7792.9488    16626.727 
   26000    8348.7115    8399.7575    86203.929    87441.809    76.782255    76.782255    76.782255    452670.91   -7742.0321    16673.228 
   26100    8331.1362     8384.921    87408.131    87483.076    76.683242    76.683242    76.683242    450921.98   -7640.7548    16696.446 
   26200    8237.4153     8365.468    87355.147    87250.895     76.72825     76.72825     76.72825    451716.42   -7754.5479    16434.558 
   26300    8258.1115    8344.6581    84746.373     87058.33     76.84965     76.84965     76.84965    453863.94   -7728.7759    16434.898 
   26400    8232.8543    8321.4607    82322.265     86896.62    76.790439    76.790439    76.790439    452815.68   -7768.7966    16361.859 
   26500    8281.6033    8314.1755    83642.962    86476.103    76.624602    76.624602    76.624602    449888.29     -7766.87    16443.434 
   26600    8250.7078    8306.0036    86480.399    86443.309    76.723564    76.723564    76.723564    451633.66   -7668.5334    16395.971 
   26700    8234.2657    8296.1878    86688.952    86078.053    76.760725    76.760725    76.760725    452290.23   -7738.0163    16365.374 
   26800    8235.9008    8277.1564    85634.503    85805.752    76.696836    76.696836    76.696836    451161.83   -7720.5036    16335.182 
   26900    8126.2581    8253.6965    86159.265    85664.193    76.775709    76.775709    76.775709    452555.15   -7758.5888    16188.147 
   27000    8145.1401    8233.3393    87452.514    85789.051    76.697744    76.697744    76.697744    451177.85   -7816.7259    16110.407 
   27100    8219.5638    8222.1821    88171.902    85865.428    76.685726    76.685726    76.685726    450965.79   -7726.6197    16320.184 
   27200    8161.3056    8214.5711    84527.979    85582.711    76.780011    76.780011    76.780011    452631.22   -7680.4304    16156.033 
   27300    8141.0901     8202.869    83623.685    85470.443    76.664317    76.664317    76.664317    450588.19   -7742.2356    16164.668 
   27400    8105.7774    8190.1613    87224.522    85960.668    76.690776    76.690776    76.690776    451054.89   -7774.5926    16036.301 
   27500    8154.8274    8177.4837    85393.737    86135.746    76.698823    76.698823    76.698823    451196.88   -7823.6867    16085.722 
   27600    8111.9565    8163.6086    83794.945      85867.2    76.714624    76.714624    76.714624    451475.81   -7848.2745    16011.204 
   27700     8165.446    8156.7266    84455.099    85643.815    76.747578    76.747578    76.747578    452057.88   -7783.2312    16117.139 
   27800    8152.2024    8148.3567    85381.467    85618.511    76.628119    76.628119    76.628119    449950.25   -7949.4661    15916.049 
   27900    8105.5192    8146.2828    85868.674    85589.452    76.688641    76.688641    76.688641    451017.22   -7821.1663    15882.169 
   28000    8088.3504    8140.6039    84802.605    85324.462    76.725736    76.725736    76.725736    451672.02   -7841.4711    15855.926 
   28100    8057.0343    8124.3509    87671.872    85274.459    76.650376    76.650376    76.650376    450342.43   -7747.5389     15828.91 
   28200    8078.7375    8116.0941    84491.943    85270.855     76.55412     76.55412     76.55412    448647.97    -7924.043    15671.432 
   28300    7991.0744    8101.0925    81838.457    85092.332    76.578117    76.578117    76.578117    449070.02   -8020.0246    15368.183 
   28400    8089.5232    8099.4671    89327.273    85302.607    76.626945    76.626945    76.626945    449929.57   -7996.0108     15700.21 
   28500    8031.5221    8087.1366    85906.229    85353.857      76.6128      76.6128      76.6128    449680.46   -7936.0655    15473.736 
   28600    8006.8736    8076.6283    82888.466    85263.209    76.612396    76.612396    76.612396    449673.34   -8011.4133    15496.779 
   28700     8035.561    8063.6398    83618.368    85179.536    76.671359    76.671359    76.671359    450712.38    -8003.417    15461.888 
   28800     7982.358    8046.6554    85308.958    85172.285    76.446677    76.446677    76.446677     446761.6    -8085.935    15303.353 
   28900    8020.2534    8038.1288      85398.4    85125.257    76.597731    76.597731    76.597731    449415.16   -8052.4808    15359.681 
   29000    7927.5054    8022.0443     85149.42    85159.939    76.531195    76.531195    76.531195    448245.02   -8020.0099    15152.582 
   29100    7969.9736    8013.3382    83407.304    84733.482    76.466908    76.466908    76.466908    447116.39   -8233.0608    15074.991 
   29200    7966.8778    8002.1523    82533.202    84537.608    76.498145    76.498145    76.498145    447664.56   -8218.5332    15109.271 
   29300     7965.306    7999.5754    85358.095    84889.571    76.496651    76.496651    76.496651    447638.32   -8134.0556    15217.521 
   29400     7937.937    7984.4168    82215.942    84178.438     76.55042     76.55042     76.55042    448582.93   -8174.8452    15070.642 
   29500    7915.5177    7972.8164    85980.069    84185.822    76.532483    76.532483    76.532483    448267.66   -8038.6976    15052.485 
   29600    7896.4066    7961.7697    83174.739     84214.45    76.577122    76.577122    76.577122     449052.5   -8070.3406    15066.557 
   29700    7912.2775    7949.4413    83616.179    84214.231    76.469276    76.469276    76.469276    447157.92   -8138.1148    14992.113 
   29800    7833.5622    7934.5617    85238.833    84207.218    76.541796    76.541796    76.541796    448431.33   -8065.9279    14852.675 
   29900    7849.6048    7917.4969    87803.544    84447.733     76.41684     76.41684     76.41684     446238.7   -8120.1728    14847.384 
   30000    7801.4837    7904.8947     87282.67    84661.058    76.449647    76.449647    76.449647    446813.67   -8081.5745    14815.269 
   30100    7819.0159    7889.7989     85895.48    84909.875    76.314681    76.314681    76.314681    444451.41   -8279.1836    14588.703 
   30200    7829.0156    7876.0127    84797.758    85136.331    76.363895    76.363895    76.363895    445311.82   -8097.9373    14801.613 
   30300     7840.101    7863.4922     87225.09     85323.03    76.405084    76.405084    76.405084    446032.78   -8179.1949     14675.88 
   30400     7814.772    7851.1757    82735.134     85374.95    76.365005    76.365005    76.365005    445331.23   -8242.2286    14627.945 
   30500    7769.4775    7836.5717    84605.829    85237.526    76.380252    76.380252    76.380252    445598.03    -8198.615    14609.759 
   30600    7837.2013    7830.6511    85992.627    85519.314    76.388577    76.388577    76.388577    445743.74   -8385.2258    14457.263 
   30700    7781.6342    7817.5868    85565.249    85714.221    76.346195    76.346195    76.346195    445002.24    -8309.925    14499.738 
   30800    7737.9251    7808.0231    84024.354    85592.774    76.365964    76.365964    76.365964    445348.01   -8333.0241    14483.648 
   30900    7699.1036     7792.973    82318.218    85044.241     76.32783     76.32783     76.32783    444681.18   -8422.9831    14106.814 
   31000    7718.5219    7784.6768    86585.363     84974.51     76.29216     76.29216     76.29216    444058.03   -8246.3523    14330.473 
   31100    7711.0402    7773.8792    83968.188    84781.781    76.405055    76.405055    76.405055    446032.27   -8390.6765    14223.899 
   31200    7715.6069    7762.5384    79221.662    84224.171    76.478582    76.478582    76.478582     447321.2   -8389.3829    14223.028 
   31300    7736.0341    7752.1317    83390.949    83840.757    76.410204    76.410204    76.410204    446122.46   -8379.9579    14193.815 
   31400    7621.4966    7732.8041    84575.878    84024.832    76.235456    76.235456    76.235456    443068.64   -8438.2817    13907.293 
   31500    7658.6387    7721.7203    84657.333    84029.982    76.290001    76.290001    76.290001    444020.33   -8469.0165    13927.982 
   31600    7676.2816    7705.6283    79260.866    83356.806    76.204903    76.204903    76.204903    442536.14   -8600.8699    13889.415 
   31700    7641.7475    7691.6396    83866.892     83186.97    76.159081    76.159081    76.159081    441738.33   -8598.9295     13842.06 
   31800    7585.0871    7676.3558    83214.972    83106.032    76.251598    76.251598    76.251598    443350.14   -8510.7574    13797.439 
   31900    7567.6027    7663.2057    83252.354    83199.446    76.177107    76.177107    76.177107    442052.07    -8575.713    13625.651 
   32000    7578.3633    7649.1899     81366.56    82677.565      76.2231      76.2231      76.2231    442853.23   -8549.9586    13746.631 
   32100     7566.036    7634.6894    80799.136     82360.66    76.216264    76.216264    76.216264     442734.1   -8701.1184    13561.272 
   32200    7620.6313    7625.1919    81473.614    82585.855    76.130609    76.130609    76.130609    441243.08   -8531.8975    13771.541 
   32300    7580.3147      7609.62    83222.472    82569.008    76.297809    76.297809    76.297809    444156.69   -8605.5229    13556.911 
   32400    7538.0579    7601.2761    78891.001     82000.52    76.295861    76.295861    76.295861    444122.67   -8713.3397    13385.024 
   32500    7533.1425    7588.7264    81838.469    81718.634    76.126773    76.126773    76.126773    441176.39   -8744.6412    13375.325 
   32600    7533.0987    7574.4082    80251.095    81817.657    76.207868    76.207868    76.207868     442587.8   -8694.6158    13294.297 
   32700    7524.6524    7562.6987    81059.771    81536.945    76.116718    76.116718    76.116718     441001.6   -8813.2064    13246.497 
   32800    7505.6312    7554.7531    81304.356    81345.883    76.083394    76.083394    76.083394    440422.64   -8668.6768    13460.834 
   32900    7464.5274    7544.4455    82894.727     81310.12    76.074645    76.074645    76.074645    440270.71   -8687.3402     13223.84 
   33000    7553.0331    7541.9125    82346.633    81408.127    76.059502    76.059502    76.059502    440007.86   -8698.5731    13433.443 
   33100    7476.1631    7532.9252    83513.873    81679.601    76.087603    76.087603    76.087603    440495.74   -8654.5713    13323.945 
   33200    7438.1424    7514.6763     83152.75    81847.515    76.051488    76.051488    76.051488    439868.78   -8717.5566    13180.958 
   33300     7383.182    7494.9631    84059.395    81931.207      76.0861      76.0861      76.0861    440469.63   -8771.8332    13006.165 
   33400    7462.9058    7487.4479    81330.215    82175.128    76.065553    76.065553    76.065553    440112.89   -8780.4542    13084.823 
   33500    7372.8899    7471.4226    80510.248    82042.306    76.092618    76.092618    76.092618    440582.85   -8759.7422    12913.411 
   33600    7404.3577    7458.5485    79466.293    81963.826    76.032999    76.032999    76.032999    439548.06   -8828.1729    12818.813 
   33700    7385.2741    7444.6107    79934.514      81851.3     76.18251     76.18251     76.18251    442146.14    -8879.392    12677.675 
   33800    7484.7525    7442.5228    82563.302    81977.195    76.012286    76.012286    76.012286    439188.92   -8887.7613    12938.128 
   33900    7385.4142    7434.6115    81595.844    81847.307    76.021968    76.021968    76.021968    439356.78   -8805.7843    12853.803 
   34000    7340.1599    7413.3242    81169.095    81729.553    76.039241    76.039241    76.039241    439656.32   -8804.9118    12719.554 
   34100    7351.6197    7400.8698    82042.153    81582.381    75.969626    75.969626    75.969626    438449.88    -8977.281    12617.505 
   34200    7272.4449    7384.3001     80563.64     81323.47     75.91814     75.91814     75.91814    437559.06   -8930.5007    12522.828 
   34300    7395.4077    7385.5226    81146.165    81032.147    75.971304    75.971304    75.971304    438478.94   -9003.4101    12707.113 
   34400    7310.7022    7370.3023    84601.868    81359.312    75.925798    75.925798    75.925798    437691.48   -8948.6357    12518.984 
   34500    7297.9402    7362.8073    78400.524     81148.34    75.988268    75.988268    75.988268    438772.75   -9064.1933    12412.305 
   34600    7291.0975    7351.4813    80380.492     81239.76    75.853108    75.853108    75.853108    436435.57   -9004.9644    12403.779 
   34700    7272.7176    7340.2256     82846.26    81530.934    75.881224    75.881224    75.881224    436921.06   -8964.1657    12385.494 
   34800    7235.1977    7315.2702    82348.631    81509.467    75.994454    75.994454    75.994454    438879.91   -8991.4532    12230.013 
   34900    7285.1591    7305.2446    80801.814    81430.064    75.911061    75.911061    75.911061    437436.66   -9055.2636    12228.207 
   35000    7229.4096    7294.1696    84510.689    81764.224    75.780497    75.780497    75.780497    435183.44   -8943.0462    12265.971 
   35100    7286.1654    7287.6242    80184.817     81578.49    75.881228    75.881228    75.881228    436921.14   -9139.1102    12199.955 
   35200    7207.6628     7281.146    78197.816    81341.907    75.828326    75.828326    75.828326    436007.95   -9188.1285    11955.376 
   35300    7189.0881     7260.514    79120.418    81139.333    75.842814    75.842814    75.842814    436257.92   -9095.1895    12086.365 
   35400    7198.9667    7249.3405    81741.779    80853.324    75.827208    75.827208    75.827208    435988.66   -9008.3679    12191.283 
   35500    7204.3538    7239.9818    79697.015    80982.973    75.826394    75.826394    75.826394    435974.62   -9170.3599    12030.219 
   35600     7159.633    7226.8354    78997.142    80844.638    75.856657    75.856657    75.856657    436496.84   -9151.2262    11864.889 
   35700    7152.6841     7214.832    79927.404    80552.752    75.834486    75.834486    75.834486    436114.21   -9163.0348    11736.608 
   35800    7104.9111    7201.8034    81941.758    80512.065    75.707682    75.707682    75.707682    433930.16   -9282.9999     11615.99 
   35900    7112.4573    7184.5332    79913.968    80423.281    75.758021    75.758021    75.758021    434796.32   -9189.8712    11747.322 
   36000    7124.2258    7174.0148    82593.362    80231.548    75.770701    75.770701    75.770701    435014.69   -9269.5117    11653.019 
   36100     7076.912    7153.0895    80495.608    80262.627    75.789809    75.789809    75.789809    435343.87   -9252.8919    11539.908 
   36200      7093.35    7141.6582    82709.057    80713.751    75.641928    75.641928    75.641928    432800.51   -9308.5664    11531.844 
   36300    7146.3114    7137.3805    77470.005     80548.71    75.675982    75.675982    75.675982    433385.32   -9394.9087    11544.121 
   36400    7061.2738    7123.6112    80507.015    80425.233    75.694445    75.694445    75.694445     433702.6   -9287.5422    11448.365 
   36500    7056.0234    7108.7782    78201.118    80275.644    75.655254    75.655254    75.655254    433029.31   -9340.7605     11403.73 
   36600    7018.1634    7094.6312    82463.797    80622.309    75.630908    75.630908    75.630908    432611.38   -9302.0177    11360.214 
   36700    7036.2752    7082.9903    77946.049    80424.174    75.699959    75.699959    75.699959    433797.39   -9379.0218    11277.599 
   36800    7022.5882     7074.758    76612.703    79891.268    75.748235    75.748235    75.748235    434627.86   -9446.8153    11296.124 
   36900    6994.7695    7062.9893    78985.474    79798.419    75.695762    75.695762    75.695762    433725.23   -9438.3733    11156.726 
   37000    7029.8249    7053.5492    78672.509    79406.334      75.5485      75.5485      75.5485     431198.8   -9442.8133    11204.858 
   37100    6961.3579    7041.9938     78603.49    79217.122    75.607672    75.607672    75.607672    432212.77   -9315.7178    11203.422 
   37200    6957.9196    7028.4507     80278.43    78974.059    75.525895    75.525895    75.525895    430811.85    -9429.516    11036.348 
   37300    6972.1011    7011.0297    79614.481    79188.507    75.481332    75.481332    75.481332    430049.71   -9494.0248     11022.98 
   37400    7001.5761    7005.0599    81335.229    79271.328    75.521989    75.521989    75.521989    430745.01   -9585.4453    10939.571 
   37500     6901.575    6989.6151    80677.188    79518.935    75.458885    75.458885    75.458885    429666.16   -9541.9799     10845.75 
   37600    6930.6161    6980.8604    81090.634    79381.619    75.450713    75.450713    75.450713    429526.58   -9578.4785    10773.723 
   37700    6910.2996    6968.2628    81691.294    79756.143    75.509079    75.509079    75.509079    430524.16   -9598.5192    10710.448 
   37800    6932.7404     6959.278    79601.298    80055.003    75.489111    75.489111    75.489111    430182.69   -9468.3088    10882.706 
   37900    6902.7696     6950.078    77848.932    79941.349    75.582283    75.582283    75.582283    431777.51   -9551.6181    10846.163 
   38000    6899.1385    6937.0094    81341.821     80208.28    75.587032    75.587032    75.587032     431858.9   -9395.0449    10838.063 
   38100    6887.7521    6929.6488     78592.58    80207.189    75.533953    75.533953    75.533953    430949.75   -9607.6441    10614.085 
   38200    6881.2561    6921.9825    79592.016    80138.547    75.416551    75.416551    75.416551    428943.41   -9623.8846    10657.299 
   38300    6821.8932    6906.9617    79644.839    80141.583     75.42323     75.42323     75.42323    429057.39   -9715.8345    10329.254 
   38400    6825.1474    6889.3188    82238.157    80231.876    75.367799    75.367799    75.367799    428112.09   -9659.8616    10479.876 
   38500    6867.1559    6885.8769    79443.733     80108.53    75.553009    75.553009    75.553009       431276   -9659.6457     10503.18 
   38600    6820.5206    6874.8673    81004.764    80099.943    75.434233    75.434233    75.434233    429245.18   -9636.5331    10376.253 
   38700    6771.6084    6860.9982    77045.319    79635.346    75.565374    75.565374    75.565374    431487.79   -9851.2307    10132.899 
   38800     6835.349    6851.2591    78248.733    79500.089    75.437427    75.437427    75.437427    429299.71   -9763.9273    10289.802 
   38900    6791.4101    6840.1231    76628.254    79378.021    75.341569    75.341569    75.341569    427665.26   -9864.5834    10091.044 
   39000    6750.5046    6825.2598    77436.978    78987.537    75.379576    75.379576    75.379576    428312.82   -9841.3745    10070.735 
   39100    6825.7213    6819.0567    76942.798    78822.559    75.307033    75.307033    75.307033    427077.42   -9935.7414    10087.661 
   39200    6754.1323    6806.3443    78823.797    78745.737    75.395653    75.395653    75.395653    428586.93   -9739.6401    10062.975 
   39300    6737.2635    6797.8813    76802.176    78461.471    75.374229    75.374229    75.374229    428221.67   -9839.4519    9946.1575 
   39400    6723.7657    6787.7431     76192.01    77856.856    75.408207    75.408207    75.408207    428801.06   -9865.1897    9856.7502 
   39500    6706.2662    6771.6542    78887.097    77801.193    75.383638    75.383638    75.383638    428382.05   -9833.8908    9923.1962 
   39600    6655.6311    6755.1652     81352.95    77836.011    75.350612    75.350612    75.350612    427819.28   -9810.1146    9726.8469 
   39700    6662.1245    6744.2168    78414.305     77972.91    75.313135    75.313135    75.313135    427181.25   -9983.0069    9562.6915 
   39800    6695.2254    6730.2045    77665.875    77914.624    75.228909    75.228909    75.228909    425749.64   -10128.434    9644.3204 
   39900    6668.4725    6717.9107    75842.403    77836.039    75.346053    75.346053    75.346053    427741.63   -10073.607    9576.8451 
   40000    6608.5315    6703.7134    77051.702    77797.511    75.323634    75.323634    75.323634    427359.93   -9966.9968    9533.8899 
   40100     6636.465    6684.7878    80412.988     78144.53     75.29057     75.29057     75.29057    426797.39   -10019.631    9512.2028 
   40200    6632.0482    6672.5794    76313.918    77893.542    75.313122    75.313122    75.313122    427181.02   -10012.163    9529.5084 
   40300    6561.1192    6654.9649    77613.722    77974.697     75.17248     75.17248     75.17248     424792.3   -10032.734    9300.2034 
   40400    6592.4158    6641.8299    76942.569    78049.753    75.259942    75.259942    75.259942    426276.74   -9954.5531    9502.6444 
   40500    6581.9206    6629.3954    78960.446    78057.088    75.157146    75.157146    75.157146    424532.41   -10150.767    9256.0658 
   40600    6541.2981    6617.9621    80692.551    77991.048    75.131202    75.131202    75.131202     424092.9   -9960.0863     9373.436 
   40700    6546.4846    6606.3981    76530.431     77802.66    75.094541    75.094541    75.094541     423472.4   -10146.698    9269.0552 
   40800    6576.7248     6594.548    75328.279    77568.901     75.07736     75.07736     75.07736     423181.8    -10190.93     9146.232 
   40900    6558.5089    6583.5517    76011.218    77585.782    75.093483    75.093483    75.093483     423454.5   -10140.339    9247.3822 
   41000    6465.1694    6569.2155    76814.597    77562.072    75.039227    75.039227    75.039227    422537.29   -10276.999    8833.6717 
[...]
  367400    301.57863    300.01298   -1911.8395   -1994.7772    84.432938    84.432938    84.432938    601915.76   -24598.427   -23586.982 
  367500    299.85754    299.99724   -1819.9696   -1972.6309    84.371057    84.371057    84.371057    600593.28   -24597.628   -23593.002 
  367600    301.14552    300.20031   -2264.8714   -1969.1027    84.346067    84.346067    84.346067    600059.77   -24597.058   -23592.461 
  367700    300.08832    300.19916   -2121.9066   -1991.7043    84.352309    84.352309    84.352309       600193   -24595.411   -23587.696 
  367800     301.1397    300.28435   -1980.3938   -1974.6529    84.384698    84.384698    84.384698    600884.63   -24594.554   -23583.067 
  367900    297.16096    299.93678   -2096.5872   -1992.7532    84.375276    84.375276    84.375276    600683.38   -24597.493   -23591.288 
  368000    299.36933    299.98717   -2016.2741   -2002.1446    84.341699    84.341699    84.341699    599966.54   -24601.077   -23600.066 
  368100    300.80917    299.93011   -2125.1164   -2014.7001    84.346318    84.346318    84.346318    600065.13   -24595.701   -23585.757 
  368200    300.68601    300.15117   -1816.9887   -2016.0962    84.264463    84.264463    84.264463    598319.79   -24595.967   -23590.866 
  368300    300.40286     300.2238   -2164.7204   -2031.8668    84.278271    84.278271    84.278271    598613.97   -24595.328   -23587.076 
  368400     298.7348    299.93942    -1751.853   -2015.8681    84.299533    84.299533    84.299533    599067.16   -24594.417   -23593.138 
  368500    300.95496    300.04916   -2083.3588    -2042.207    84.353507    84.353507    84.353507    600218.57   -24596.068   -23589.499 
  368600    298.99661    299.83427   -2162.2008     -2031.94    84.350634    84.350634    84.350634    600157.25   -24592.969   -23587.788 
  368700    301.10334    299.93577   -1941.4023   -2013.8895    84.394473    84.394473    84.394473    601093.47   -24598.835   -23593.025 
  368800    300.73874    299.89568   -1834.1057   -1999.2607    84.346405    84.346405    84.346405    600066.98   -24600.875   -23595.042 
  368900    300.03463    300.18304   -2003.8123   -1989.9832    84.329781    84.329781    84.329781    599712.25   -24598.976   -23594.873 
  369000    300.73015    300.31913   -1924.3808   -1980.7939    84.398992    84.398992    84.398992    601190.04   -24592.655   -23590.864 
  369100    303.78628    300.61684   -2272.9714   -1995.5794    84.345202    84.345202    84.345202     600041.3   -24596.986   -23583.048 
  369200     301.2959    300.67783   -2061.6253   -2020.0431    84.341895    84.341895    84.341895    599970.72   -24598.186   -23589.302 
  369300     301.2431    300.76185   -2086.3933   -2012.2104    84.394938    84.394938    84.394938    601103.41   -24598.429   -23589.411 
  369400    298.84474    300.77284   -1929.7107   -2029.9961    84.429808    84.429808    84.429808    601848.81   -24591.145   -23590.666 
  369500    300.17424    300.69477   -2136.5743   -2035.3177    84.427153    84.427153    84.427153    601792.03   -24594.902   -23590.778 
  369600    299.52221    300.74733   -2090.2375   -2028.1213    84.427438    84.427438    84.427438    601798.13   -24599.699    -23595.21 
  369700    298.57386    300.49438   -2010.7621   -2035.0573    84.431133    84.431133    84.431133    601877.15   -24596.208   -23590.861 
  369800    298.88264    300.30877   -2158.0738   -2067.4541    84.435759    84.435759    84.435759    601976.08   -24598.409     -23594.8 
  369900    300.02866    300.30818   -1943.4624   -2061.4191    84.426012    84.426012    84.426012    601767.63     -24597.8   -23589.309 
  370000    299.56379    300.19154   -2256.7462   -2094.6557    84.465822    84.465822    84.465822    602619.31   -24593.199   -23590.335 
  370100    299.19035    299.73195   -2190.6028   -2086.4188    84.476863    84.476863    84.476863    602855.65   -24593.622   -23592.212 
  370200    299.49267    299.55163   -2299.7214   -2110.2284    84.470552    84.470552    84.470552    602720.55   -24592.977   -23586.982 
  370300    300.39918    299.46723   -1945.0259   -2096.0917    84.467733    84.467733    84.467733     602660.2   -24591.483   -23582.753 
  370400    302.16655    299.79942   -1943.6632    -2097.487    84.381838    84.381838    84.381838    600823.54   -24594.441   -23582.973 
  370500    297.91852    299.57384   -2002.4445    -2084.074    84.326913    84.326913    84.326913    599651.07   -24591.437   -23589.379 
  370600    299.58022    299.57964   -1898.8198   -2064.9322    84.313708    84.313708    84.313708     599369.4   -24594.901   -23591.335 
  370700    300.83953    299.80621   -2204.9783   -2084.3538    84.319885    84.319885    84.319885    599501.14   -24601.626   -23592.548 
  370800    301.82738    300.10069   -1872.9867   -2055.8451    84.307847    84.307847    84.307847    599244.43   -24600.032   -23588.719 
  370900    301.45013    300.24283   -1860.7748   -2047.5764    84.312497    84.312497    84.312497    599343.58   -24603.862   -23595.918 
  371000    300.10647     300.2971   -2018.1649   -2023.7182    84.377788    84.377788    84.377788    600737.04   -24597.766   -23592.202 
  371100    300.08995    300.38706   -1940.9289   -1998.7508    84.347355    84.347355    84.347355    600087.25   -24594.842   -23593.308 
  371200    300.91347    300.52914   -2295.3016   -1998.3089    84.398507    84.398507    84.398507    601179.67   -24600.686   -23594.554 
  371300    302.21239    300.71046   -2078.7795   -2011.6842    84.440774    84.440774    84.440774    602083.36   -24595.379   -23586.302 
  371400    299.61325    300.45513   -1935.0032   -2010.8182    84.405299    84.405299    84.405299    601324.83   -24595.911   -23589.423 
  371500    303.29709    300.99299   -2072.4086   -2017.8146    84.404885    84.404885    84.404885    601315.99   -24598.291   -23591.095 
  371600    301.20878    301.15585   -1817.7175   -2009.7044    84.364558    84.364558    84.364558     600454.5   -24598.679   -23589.359 
  371700    300.08804     301.0807   -2082.7483   -1997.4814    84.490616    84.490616    84.490616    603150.13   -24593.183   -23588.864 
  371800    297.87804    300.68576    -2024.068   -2012.5895    84.533616    84.533616    84.533616    604071.49   -24595.973   -23594.535 
  371900    301.57683    300.69843   -2129.2043   -2039.4325    84.578658    84.578658    84.578658    605037.62   -24594.805   -23582.562 
  372000    298.71723    300.55951   -2087.4692   -2046.3629    84.507647    84.507647    84.507647    603514.95   -24594.839   -23589.441 
  372100     299.4369     300.4942   -2014.9842   -2053.7684    84.472282    84.472282    84.472282    602757.58   -24594.911   -23590.089 
  372200    300.02222    300.40508   -1894.2119   -2013.6595    84.451377    84.451377    84.451377    602310.17   -24595.709   -23592.957 
  372300     300.5129    300.23513   -1973.2492   -2003.1064    84.428413    84.428413    84.428413    601818.97   -24600.347   -23595.756 
  372400    296.71492    299.94529   -2016.2516   -2011.2313    84.425365    84.425365    84.425365    601753.81   -24598.282   -23598.089 
  372500    299.09972    299.52556   -1911.3611   -1995.1265     84.38055     84.38055     84.38055    600796.03   -24599.144   -23596.669 
  372600    301.51576    299.55626   -1961.0777   -2009.4625    84.415537    84.415537    84.415537    601543.67   -24596.646   -23587.676 
  372700    297.28134    299.27559   -1898.5657   -1991.0443    84.377105    84.377105    84.377105    600722.44   -24598.833   -23598.279 
  372800     301.8944    299.67722   -1913.0635   -1979.9438    84.380991    84.380991    84.380991    600805.46    -24600.43   -23590.922 
  372900    301.50521    299.67006   -1999.3567   -1966.9591    84.435132    84.435132    84.435132    601962.68   -24597.156   -23592.075 
  373000    297.20825    299.51916   -1754.5941   -1933.6716    84.408297    84.408297    84.408297     601388.9   -24598.261   -23600.012 
  373100    299.13595    299.48907   -1838.7649   -1916.0496    84.487359    84.487359    84.487359    603080.38   -24595.221    -23593.51 
  373200    299.72236    299.45908   -2104.9442   -1937.1229    84.436185    84.436185    84.436185     601985.2   -24597.597   -23595.241 
  373300    299.75724    299.38351   -1885.7697   -1928.3749    84.404829    84.404829    84.404829    601314.79    -24597.15    -23595.79 
  373400    302.48425    299.96045    -1905.451   -1917.2949    84.442993    84.442993    84.442993    602130.81   -24598.844   -23588.782 
  373500    297.10436    299.76091    -2099.856   -1936.1443    84.489196    84.489196    84.489196    603119.72   -24593.699   -23596.389 
  373600      298.345    299.44383   -2022.3077   -1942.2673    84.496803    84.496803    84.496803    603282.65    -24596.63   -23597.657 
  373700    303.72679    300.08838    -2108.952    -1963.306    84.483971    84.483971    84.483971    603007.85    -24599.28   -23587.341 
  373800    301.00651    299.99959   -2308.7251   -2002.8721    84.437205    84.437205    84.437205    602007.02    -24597.33   -23585.092 
  373900    303.23765    300.17284   -1844.8591   -1987.4224    84.434099    84.434099    84.434099    601940.58   -24598.724   -23587.955 
  374000     300.5315    300.50516   -2145.7571   -2026.5387    84.461317    84.461317    84.461317    602522.89   -24593.132   -23587.024 
  374100    301.41949    300.73351   -1939.0113   -2036.5633    84.437224    84.437224    84.437224    602007.42   -24601.967   -23592.434 
  374200     300.8489    300.84617   -2051.9892   -2031.2678    84.504229    84.504229    84.504229    603441.72   -24597.283   -23591.353 
  374300    299.04153     300.7746   -1888.5816    -2031.549    84.487705    84.487705    84.487705    603087.79   -24597.154   -23595.049 
  374400    299.99294    300.52547   -1842.1241   -2025.2163     84.46912     84.46912     84.46912    602689.89   -24595.338   -23589.084 
  374500    299.01132    300.71616   -1987.9528    -2014.026    84.515214    84.515214    84.515214    603677.08   -24594.281   -23591.487 
  374600    301.66536     301.0482   -2095.4311   -2021.3383    84.508658    84.508658    84.508658    603536.61   -24593.203   -23588.055 
  374700    296.98926    300.37445   -1880.2052   -1998.4637    84.420385    84.420385    84.420385    601647.32   -24589.243   -23592.562 
  374800    300.23508     300.2973   -2167.8166   -1984.3728    84.458307    84.458307    84.458307    602458.47   -24598.883    -23591.19 
  374900    299.60538    299.93408   -1862.2272   -1986.1096     84.43059     84.43059     84.43059    601865.54   -24599.771     -23592.2 
  375000    299.55179    299.83611   -2236.7167   -1995.2056    84.439018    84.439018    84.439018    602045.79   -24601.531   -23598.953 
  375100    300.90538     299.7847   -1887.9043   -1990.0949     84.38587     84.38587     84.38587    600909.67   -24600.562   -23590.997 
  375200    300.78916    299.77872   -1993.3349   -1984.2295    84.386338    84.386338    84.386338    600919.67   -24599.112    -23586.99 
  375300    297.96889    299.67146   -1842.3974    -1979.611    84.369842    84.369842    84.369842    600567.34   -24595.262    -23594.34 
  375400     299.7827    299.65043   -1866.5306   -1982.0517    84.396733    84.396733    84.396733    601141.77   -24590.117    -23587.22 
  375500    301.37933    299.88723   -2124.1744   -1995.6738    84.410129    84.410129    84.410129    601428.08   -24597.675   -23585.242 
  375600    298.56525    299.57722   -2129.0157   -1999.0323    84.390471    84.390471    84.390471    601007.98   -24596.745   -23594.659 
  375700    301.45059    300.02335   -2072.4112   -2018.2529    84.442568    84.442568    84.442568    602121.72   -24592.761    -23588.06 
  375800    298.26498    299.82634   -2211.7501   -2022.6462    84.454453    84.454453    84.454453    602376.01     -24593.2   -23592.647 
  375900    299.77288    299.84309   -2067.0892   -2043.1324    84.444298    84.444298    84.444298    602158.73   -24596.926   -23593.185 
  376000    300.37688     299.9256   -2090.3348   -2028.4942    84.488794    84.488794    84.488794    603111.12   -24593.048   -23588.725 
  376100    300.11162    299.84623   -1930.3716    -2032.741    84.477714    84.477714    84.477714    602873.86   -24597.404   -23589.826 
  376200    298.40968    299.60828   -2086.8725   -2042.0947    84.524209    84.524209    84.524209    603869.86   -24594.659   -23590.972 
  376300    302.48803    300.06019    -1905.268   -2048.3818    84.500058    84.500058    84.500058    603352.37   -24594.448   -23577.487 
  376400    301.64604    300.24653    -2145.163    -2076.245    84.510348    84.510348    84.510348    603572.82   -24592.712   -23584.032 
  376500    301.76558    300.28515   -2009.5066   -2064.7783    84.535555    84.535555    84.535555    604113.07   -24593.248   -23585.567 
  376600    299.79489    300.40812   -2296.3402   -2081.5107    84.496753    84.496753    84.496753    603281.57   -24594.575   -23586.643 
  376700     301.5233    300.41539   -1976.2077   -2071.8904    84.430879    84.430879    84.430879    601871.71   -24598.482    -23589.87 
  376800    300.68472    300.65736    -1866.334   -2037.3488    84.471631    84.471631    84.471631    602743.64   -24596.358   -23593.056 
  376900    299.48311    300.62838   -2019.8494   -2032.6248    84.448236    84.448236    84.448236    602242.98    -24594.97   -23590.534 
  377000    299.62654    300.55335   -2144.7974    -2038.071    84.416838    84.416838    84.416838    601571.49   -24589.749   -23586.597 
  377100    301.97501    300.73969   -2181.8832   -2063.2222    84.471777    84.471777    84.471777    602746.77   -24597.711   -23590.542 
  377200    298.21815    300.72054   -2063.3509     -2060.87    84.461587    84.461587    84.461587    602528.66   -24595.119    -23594.36 
  377300    300.44682    300.51642   -1990.7857   -2069.4218    84.462232    84.462232    84.462232    602542.47    -24597.59   -23590.488 
  377400    301.90462    300.54227   -2286.2608   -2083.5316    84.470474    84.470474    84.470474    602718.87   -24591.631   -23589.965 
  377500    299.67015    300.33273   -2318.4955   -2114.4305     84.52303     84.52303     84.52303    603844.57   -24589.201   -23583.042 
  377600    300.36066    300.38931   -2222.3277   -2107.0292    84.612164    84.612164    84.612164    605756.96    -24593.69   -23585.756 
  377700    300.08078    300.24506   -2202.2357    -2129.632    84.639012    84.639012    84.639012    606333.78   -24594.907   -23592.093 
  377800    300.22321     300.1989   -2270.8037    -2170.079    84.617859    84.617859    84.617859    605879.28   -24594.512   -23590.412 
  377900    301.13231    300.36382   -1656.4749   -2133.7415    84.672111    84.672111    84.672111    607045.38   -24594.121   -23588.988 
  378000    299.08797    300.30997   -1940.1432   -2113.2761    84.685382    84.685382    84.685382    607330.87   -24594.989   -23589.493 
  378100    297.34279    299.84675   -2098.0886   -2104.8967    84.685544    84.685544    84.685544    607334.36   -24588.056   -23587.662 
  378200    300.38032    300.06296   -2105.1899   -2109.0806    84.628568    84.628568    84.628568    606109.33   -24598.007   -23591.927 
  378300    301.24815     300.1431   -1876.4387   -2097.6459    84.574098    84.574098    84.574098    604939.74   -24597.353   -23582.361 
  378400    301.56778    300.10941   -2068.4022     -2075.86    84.576511    84.576511    84.576511    604991.53   -24594.108   -23589.697 
  378500    301.31992    300.27439   -1853.8453    -2029.395    84.641859    84.641859    84.641859    606394.96   -24591.372   -23585.457 
  378600    299.75223    300.21355   -2096.2303   -2016.7852    84.682937    84.682937    84.682937    607278.26   -24593.276   -23587.946 
  378700    300.38024    300.24349   -1993.4435    -1995.906    84.675524    84.675524    84.675524    607118.79   -24594.709   -23588.132 
  378800    301.80437    300.40161   -1968.6126   -1965.6869    84.632183    84.632183    84.632183    606187.02   -24595.373   -23586.547 
  378900    300.87633    300.37601   -1928.9464   -1992.9341    84.608554    84.608554    84.608554    605679.43   -24597.426   -23594.248 
  379000    299.78342    300.44556   -1976.2449   -1996.5442    84.562681    84.562681    84.562681     604694.8   -24595.209   -23593.467 
  379100    299.34878    300.64615   -2140.7593   -2000.8113    84.578967    84.578967    84.578967    605044.23   -24595.281   -23590.504 
  379200    299.51962    300.56008   -2158.5783   -2006.1501    84.568229    84.568229    84.568229    604813.82   -24593.049   -23589.771 
  379300    301.41004    300.57627   -2058.1256   -2024.3188    84.602266    84.602266    84.602266    605544.38     -24595.9   -23585.517 
  379400    298.48122    300.26762   -1969.5961   -2014.4382    84.635964    84.635964    84.635964    606268.27   -24593.995   -23593.679 
  379500    299.87993    300.12362   -2056.6025   -2034.7139    84.718777    84.718777    84.718777    608049.63   -24586.846   -23584.402 
  379600    297.83831    299.93223   -1956.2432   -2020.7152    84.694322    84.694322    84.694322    607523.22   -24594.332   -23598.875 
  379700    301.30109    300.02431   -2052.0755   -2026.5784    84.612445    84.612445    84.612445       605763   -24595.749   -23589.239 
  379800    299.70111    299.81398   -1946.3547   -2024.3526    84.604516    84.604516    84.604516     605592.7   -24597.651   -23592.492 
  379900    300.89721    299.81607   -2181.1781   -2049.5758    84.648979    84.648979    84.648979       606548   -24593.741    -23590.34 
  380000    299.51915    299.78965   -1921.9367    -2044.145       84.592       84.592       84.592    605323.97   -24593.197   -23585.163 
  380100     300.8103     299.9358   -2105.0326   -2040.5723    84.611589    84.611589    84.611589     605744.6   -24592.643   -23581.948 
  380200    300.89047    300.07288   -2127.7851    -2037.493     84.66969     84.66969     84.66969    606993.32   -24593.099   -23587.599 
  380300    300.35417     299.9673   -2097.2655    -2041.407    84.737894    84.737894    84.737894    608461.36   -24586.767   -23582.142 
  380313    297.60083    299.87926   -1982.5451   -2042.7019    84.737498    84.737498    84.737498    608452.82   -24587.776    -23587.91 
Loop time of 290.383 on 48 procs for 20000 steps with 17600 atoms

Pair  time (%) = 141.612 (48.7672)
Bond  time (%) = 2.11477 (0.728268)
Neigh time (%) = 0.717125 (0.246959)
Comm  time (%) = 113.247 (38.9992)
Outpt time (%) = 0.53184 (0.183151)
Other time (%) = 32.1606 (11.0752)

Nlocal:    366.667 ave 471 max 290 min
Histogram: 5 2 5 11 10 6 7 0 1 1
Nghost:    1149.04 ave 1294 max 967 min
Histogram: 1 1 2 3 7 16 12 3 0 3
Neighs:    15604.5 ave 24103 max 10619 min
Histogram: 6 2 8 13 7 8 2 1 0 1

Total # of neighbors = 749016
Ave neighs/atom = 42.5577
Ave special neighs/atom = 2.04545
Neighbor list builds = 314
Dangerous builds = 0

#########################################################################
clear
next a
next p
next q
next r
next s
next t
next v
jump in.EtOCSMethyl# EtOCSMethyl -- network connectivity scan -- with bulk modulus simulation

# trial parameter
variable a index 1.1 1.2 1.3 2.1 2.2 2.3 3.1 3.2 3.3 
# EtOCSMethyl precursor start moleculeID parameter
variable p index 1 1 1 1 1 1 1 1 1 
# EtOCSMethyl precursor end moleculeID parameter
variable q index 2000 2000 2000 2000 2000 2000 2000 2000 2000 
# free O start atomID parameter
variable r index 10001 10001 10001 10001 10001 10001 10001 10001 10001 
# free O end atomID parameter
variable s index 16800 16800 16800 17600 17600 17600 18400 18400 18400 
# porogen start moleculeID parameter
variable t index 2001 2001 2001 2001 2001 2001 2001 2001 2001 
# porogen end moleculeID parameter
variable v index 2000 2000 2000 2000 2000 2000 2000 2000 2000 

log log_$a.lammps
log log_2.3.lammps
