
#########################################################################
dimension 3
atom_style full

# bonded potentials
bond_style harmonic
angle_style harmonic
dihedral_style hybrid opls class2

boundary p p p
units metal
neighbor 2 bin
neigh_modify check yes

timestep 0.001

read_data data.EtOCSMethyl_2000_$a
read_data data.EtOCSMethyl_2000_3.1
  1 = max bonds/atom
  1 = max angles/atom
  1 = max dihedrals/atom
  orthogonal box = (-4 -4 -4) to (139 139 139)
  3 by 4 by 4 processor grid
  18400 atoms
  8000 bonds
  6000 angles
  4000 dihedrals
  2 = max # of 1-2 neighbors
  2 = max # of 1-3 neighbors
  2 = max # of 1-4 neighbors
  4 = max # of special neighbors

#########################################################################
# number of EtOCSMethyl precursors (referenced by moleculeID)
group precursors molecule <> $p $q
group precursors molecule <> 1 $q
group precursors molecule <> 1 2000
10000 atoms in group precursors

# number of free O atoms (referenced by atomID)
group freeO id <> $r $s
group freeO id <> 10001 $s
group freeO id <> 10001 18400
8400 atoms in group freeO

# number of porogen molecules (referenced by moleculeID)
group porogen molecule <> $t $v
group porogen molecule <> 2001 $v
group porogen molecule <> 2001 2000
0 atoms in group porogen

group active union precursors freeO porogen
18400 atoms in group active
group activematrix union precursors freeO
18400 atoms in group activematrix
group inactive subtract all active
0 atoms in group inactive
delete_atoms group inactive
Deleted 0 atoms, new total = 18400

#########################################################################
#soft potential to push the atoms apart
pair_style soft 3
pair_coeff	* * 0 500 3

thermo_style custom step temp tave press pave lx ly lz vol epair etotal

fix 1		active nvt 6000 6000 0.0100 drag 2.00
thermo		1000
run		20000
Memory usage per processor = 2.41011 Mbytes
Step Temp T_ave Press P_ave Lx Ly Lz Volume E_pair TotEng 
       0            0            0   -2.6663323   -2.6663323          143          143          143      2924207            0    11.848978 
    1000    5976.0758    2988.0379     4807.949    2402.6413          143          143          143      2924207    203.16991     16686.89 
    2000    6001.6509    3992.5756    4475.0563    3093.4463          143          143          143      2924207    115.95639    17617.725 
    3000    5990.2456    4491.9931    4214.3253    3373.6661          143          143          143      2924207    98.786734    18063.466 
    4000     5998.073    4793.2091    4278.1543    3554.5637          143          143          143      2924207    79.254912    18324.812 
    5000    6012.5755    4996.4368    4151.9747    3654.1322          143          143          143      2924207    75.830517     18372.69 
    6000    5983.0135    5137.3763    3895.1673    3688.5658          143          143          143      2924207    71.624288    18347.621 
    7000    5991.0585    5244.0866    4477.7631    3787.2155          143          143          143      2924207    73.310679    18329.751 
    8000    5995.9029    5327.6218    4102.8635    3822.2875          143          143          143      2924207    64.686069    18357.532 
    9000    6023.1861    5397.1782    4263.1691    3866.3756          143          143          143      2924207    65.969095    18327.504 
   10000    6002.6652    5997.4447    4218.6745    4288.5097          143          143          143      2924207    62.482542     18339.67 
   11000    6000.0821    5999.8453    3999.1247    4207.6273          143          143          143      2924207     53.09502    18322.624 
   12000    5984.2521    5998.1054    4060.9411    4166.2158          143          143          143      2924207    55.874377    18376.665 
   13000    5993.3531    5998.4162    4225.3127    4167.3145          143          143          143      2924207    43.620157    18375.801 
   14000    6001.6444    5998.7733    4076.4907    4147.1481          143          143          143      2924207    40.343952    18362.586 
   15000    5985.2655    5996.0423     3742.054    4106.1561          143          143          143      2924207    39.112796    18330.017 
   16000    5988.2703     5996.568    4048.9092    4121.5303          143          143          143      2924207    46.637443    18329.083 
   17000    6007.8866    5998.2508    4314.3764    4105.1916          143          143          143      2924207    44.057976    18397.332 
   18000    6017.6397    6000.4245    4073.7148    4102.2767          143          143          143      2924207    40.022303    18326.936 
   19000    6017.0391    5999.8098    4032.1686    4079.1767          143          143          143      2924207    36.515531     18373.79 
   20000    5978.6632    5997.4096    4191.6377     4076.473          143          143          143      2924207     42.28766    18323.802 
Loop time of 41.6726 on 48 procs for 20000 steps with 18400 atoms

Pair  time (%) = 0.359585 (0.862881)
Bond  time (%) = 2.03967 (4.89452)
Neigh time (%) = 0.627652 (1.50615)
Comm  time (%) = 30.3619 (72.8582)
Outpt time (%) = 0.0267903 (0.0642875)
Other time (%) = 8.25697 (19.8139)

Nlocal:    383.333 ave 429 max 351 min
Histogram: 5 8 7 3 5 6 7 4 1 2
Nghost:    373.833 ave 437 max 331 min
Histogram: 4 3 7 10 9 9 2 2 1 1
Neighs:    406.458 ave 526 max 296 min
Histogram: 2 1 5 5 13 11 6 3 1 1

Total # of neighbors = 19510
Ave neighs/atom = 1.06033
Ave special neighs/atom = 1.95652
Neighbor list builds = 1735
Dangerous builds = 339

thermo		1
minimize		1e-4 10000 10000
Memory usage per processor = 3.12002 Mbytes
Step Temp T_ave Press P_ave Lx Ly Lz Volume E_pair TotEng 
   20000    5978.6632    5997.4096    4191.6377     4076.473          143          143          143      2924207     42.28766    18323.802 
   20001    5978.6632    5995.2677    3490.3733    4025.5978          143          143          143      2924207    0.3564096    17606.471 
   20002    5978.6632    5994.7088    4401.8188    4059.6856          143          143          143      2924207     2.452669      16485.8 
   20003    5978.6632    5993.2399    4631.8994    4100.3443          143          143          143      2924207   0.21928673    16165.258 
   20004    5978.6632    5990.9417    5199.4527    4212.6405          143          143          143      2924207    3.3573894    15736.114 
   20005    5978.6632    5990.2815    5136.3202    4352.0671          143          143          143      2924207 0.0082093794    15678.569 
   20006    5978.6632    5989.3208    5326.7207    4479.8482          143          143          143      2924207    3.1342851    15399.837 
   20007    5978.6632    5986.3985    5203.2013    4568.7307          143          143          143      2924207 0.0050827978     15352.87 
   20008    5978.6632    5982.5008    5393.3502    4700.6943          143          143          143      2924207    2.7501312    15142.166 
   20009    5978.6632    5978.6632    5267.2935    4824.2068          143          143          143      2924207  0.011335245    15102.045 
   20010    5978.6632    5978.6632     5351.103    4940.1533          143          143          143      2924207   0.97772681    14993.789 
   20011    5978.6632    5978.6632    5301.1538    5121.2314          143          143          143      2924207   0.16414812    14945.018 
   20012    5978.6632    5978.6632    5307.7382    5211.8233          143          143          143      2924207  0.033037079    14896.848 
   20013    5978.6632    5978.6632    5440.6365     5292.697          143          143          143      2924207    3.9948555    14799.941 
   20014    5978.6632    5978.6632    5295.3909    5302.2908          143          143          143      2924207  0.079020337    14775.979 
   20015    5978.6632    5978.6632    5303.5022     5319.009          143          143          143      2924207  0.023951585    14753.987 
   20016    5978.6632    5978.6632    5412.7942    5327.6164          143          143          143      2924207     1.846079    14696.762 
   20017    5978.6632    5978.6632    5293.9824    5336.6945          143          143          143      2924207 0.0085244265     14684.76 
   20018    5978.6632    5978.6632    5327.1754     5330.077          143          143          143      2924207   0.57437055    14646.609 
   20019    5978.6632    5978.6632    5281.7383    5331.5215          143          143          143      2924207 0.0069871322    14637.992 
   20020    5978.6632    5978.6632     5309.869    5327.3981          143          143          143      2924207   0.49410406    14619.523 
   20021    5978.6632    5978.6632    5276.6267    5324.9454          143          143          143      2924207 0.0064902427    14613.455 
   20022    5978.6632    5978.6632    5311.4304    5325.3146          143          143          143      2924207   0.20951698    14595.951 
   20023    5978.6632    5978.6632      5310.45    5312.2959          143          143          143      2924207   0.40944194    14567.232 
   20024    5978.6632    5978.6632    5257.0245    5308.4593          143          143          143      2924207 0.0029677189    14555.517 
   20025    5978.6632    5978.6632    5357.2449    5313.8336          143          143          143      2924207    2.7112338    14534.341 
   20026    5978.6632    5978.6632    5295.7967    5302.1338          143          143          143      2924207    1.1351997    14522.009 
   20027    5978.6632    5978.6632    5241.5999    5296.8956          143          143          143      2924207   0.11918367    14506.428 
   20028    5978.6632    5978.6632    5239.1163    5288.0897          143          143          143      2924207  0.010325096    14496.822 
   20029    5978.6632    5978.6632    5236.0063    5283.5165          143          143          143      2924207 0.0068311527    14489.973 
   20030    5978.6632    5978.6632    5244.0981    5276.9394          143          143          143      2924207  0.077886061    14479.249 
   20031    5978.6632    5978.6632    5241.9451    5273.4712          143          143          143      2924207   0.10890129    14469.711 
   20032    5978.6632    5978.6632    5235.1469    5265.8429          143          143          143      2924207  0.044861536    14463.386 
   20033    5978.6632    5978.6632    5232.0044    5257.9983          143          143          143      2924207  0.097490655    14454.503 
   20034    5978.6632    5978.6632    5232.0771    5255.5036          143          143          143      2924207   0.15173239    14449.133 
   20035    5978.6632    5978.6632    5230.0497    5242.7841          143          143          143      2924207  0.089511658    14441.251 
   20036    5978.6632    5978.6632    5218.8599    5235.0904          143          143          143      2924207  0.035711036    14435.854 
   20037    5978.6632    5978.6632    5217.1143    5232.6418          143          143          143      2924207  0.030675261    14428.899 
   20038    5978.6632    5978.6632    5221.4832    5230.8785          143          143          143      2924207  0.062172437    14420.943 
   20039    5978.6632    5978.6632    5224.1293    5229.6908          143          143          143      2924207  0.085302805    14416.233 
   20040    5978.6632    5978.6632     5209.016    5226.1826          143          143          143      2924207 0.0078459769    14412.725 
   20041    5978.6632    5978.6632    5207.6813    5222.7562          143          143          143      2924207 0.0041758972     14409.88 
   20042    5978.6632    5978.6632    5210.3353     5220.275          143          143          143      2924207  0.016387543    14406.193 
   20043    5978.6632    5978.6632    5205.0969    5217.5843          143          143          143      2924207 9.5577796e-05    14404.992 
   20044    5978.6632    5978.6632    5550.9854    5249.4751          143          143          143      2924207    10.943733    14395.646 
   20045    5978.6632    5978.6632     5631.705    5289.6406          143          143          143      2924207    13.638786    14394.873 
   20046    5978.6632    5978.6632    5205.2203    5288.2767          143          143          143      2924207     0.385996    14376.267 
   20047    5978.6632    5978.6632    5159.2659    5282.4918          143          143          143      2924207 1.132676e-05    14375.409 
   20048    5978.6632    5978.6632    5235.1532    5283.8588          143          143          143      2924207   0.15979691     14373.21 
   20049    5978.6632    5978.6632    5250.5918    5286.5051          143          143          143      2924207  0.033135534    14372.372 
   20050    5978.6632    5978.6632    5329.9787    5298.6014          143          143          143      2924207    1.3334716    14367.508 
   20051    5978.6632    5978.6632    5247.2419    5302.5574          143          143          143      2924207   0.44804992    14364.867 
   20052    5978.6632    5978.6632    5183.9442    5299.9183          143          143          143      2924207 0.0075846565    14362.533 
   20053    5978.6632    5978.6632    5203.6604    5299.7747          143          143          143      2924207  0.016371307     14359.41 
   20054    5978.6632    5978.6632    5204.8744    5265.1636          143          143          143      2924207  0.012306608    14358.253 
   20055    5978.6632    5978.6632    5235.2249    5225.5156          143          143          143      2924207   0.35994111     14356.19 
   20056    5978.6632    5978.6632    5212.5593    5226.2495          143          143          143      2924207   0.13720743    14355.306 
   20057    5978.6632    5978.6632    5207.8429    5231.1072          143          143          143      2924207   0.16317288    14352.117 
   20058    5978.6632    5978.6632    5201.1965    5227.7115          143          143          143      2924207  0.016914912    14348.845 
   20059    5978.6632    5978.6632    5269.4971     5229.602          143          143          143      2924207     1.124437    14345.673 
   20060    5978.6632    5978.6632    5258.1571    5222.4199          143          143          143      2924207   0.57194659    14342.987 
   20061    5978.6632    5978.6632    5218.8077    5219.5764          143          143          143      2924207   0.49880951    14340.437 
   20062    5978.6632    5978.6632    5195.8966    5220.7717          143          143          143      2924207   0.76852634    14337.592 
   20063    5978.6632    5978.6632    5171.8935     5217.595          143          143          143      2924207   0.15443942      14335.4 
   20064    5978.6632    5978.6632     5189.151    5216.0227          143          143          143      2924207   0.10751948    14333.927 
   20065    5978.6632    5978.6632    5179.6783     5210.468          143          143          143      2924207 0.0023857903     14333.55 
   20066    5978.6632    5978.6632    5184.5425    5207.6663          143          143          143      2924207 0.0019852981    14332.523 
   20067    5978.6632    5978.6632    5233.4227    5210.2243          143          143          143      2924207   0.54465472    14331.074 
   20068    5978.6632    5978.6632    5217.7732     5211.882          143          143          143      2924207   0.18452473    14329.977 
   20069    5978.6632    5978.6632    5217.5949    5206.6918          143          143          143      2924207    0.1337808    14329.233 
   20070    5978.6632    5978.6632    5211.0163    5201.9777          143          143          143      2924207   0.17313039    14328.344 
   20071    5978.6632    5978.6632    5200.6959    5200.1665          143          143          143      2924207  0.039915624    14327.733 
   20072    5978.6632    5978.6632    5191.9534    5199.7722          143          143          143      2924207  0.005802336    14327.366 
   20073    5978.6632    5978.6632    5209.4041    5203.5232          143          143          143      2924207  0.035662534    14326.242 
   20074    5978.6632    5978.6632    5218.6361    5206.4717          143          143          143      2924207  0.079817659    14325.269 
   20075    5978.6632    5978.6632    5214.4167    5209.9456          143          143          143      2924207    0.1399529    14324.531 
   20076    5978.6632    5978.6632    5196.6185    5211.1532          143          143          143      2924207  0.045651738    14324.144 
   20077    5978.6632    5978.6632    5190.1793    5206.8289          143          143          143      2924207  0.076053619    14323.668 
   20078    5978.6632    5978.6632    5191.4499    5204.1965          143          143          143      2924207   0.11373577    14323.163 
   20079    5978.6632    5978.6632    5198.3323    5202.2703          143          143          143      2924207   0.18719264    14322.528 
   20080    5978.6632    5978.6632     5201.631    5201.3317          143          143          143      2924207   0.20142143    14321.862 
   20081    5978.6632    5978.6632    5198.4263    5201.1048          143          143          143      2924207   0.11130477    14321.238 
   20082    5978.6632    5978.6632    5199.4736    5201.8568          143          143          143      2924207   0.10808443    14320.869 
   20083    5978.6632    5978.6632    5200.0396    5200.9203          143          143          143      2924207  0.082263427    14320.421 
   20084    5978.6632    5978.6632    5201.7811    5199.2348          143          143          143      2924207   0.10755316    14319.996 
   20085    5978.6632    5978.6632    5199.0586     5197.699          143          143          143      2924207   0.12184145    14319.588 
   20086    5978.6632    5978.6632    5192.7767    5197.3148          143          143          143      2924207  0.030575031    14319.022 
   20087    5978.6632    5978.6632    5202.4277    5198.5397          143          143          143      2924207   0.10520675    14318.334 
   20088    5978.6632    5978.6632    5199.1434     5199.309          143          143          143      2924207  0.070000535    14317.956 
   20089    5978.6632    5978.6632     5198.954    5199.3712          143          143          143      2924207   0.24211996    14317.224 
   20090    5978.6632    5978.6632     5195.635    5198.7716          143          143          143      2924207  0.046983601    14316.695 
   20091    5978.6632    5978.6632    5185.3708     5197.466          143          143          143      2924207 2.9431158e-07    14316.501 
   20092    5978.6632    5978.6632    5192.7099    5196.7897          143          143          143      2924207 0.0064307133    14315.921 
   20093    5978.6632    5978.6632    5210.3786    5197.8236          143          143          143      2924207   0.19300099    14315.173 
   20094    5978.6632    5978.6632    5203.0499    5197.9505          143          143          143      2924207  0.080579014    14314.783 
   20095    5978.6632    5978.6632    5197.6789    5197.8125          143          143          143      2924207  0.039594866    14314.369 
   20096    5978.6632    5978.6632    5195.8051    5198.1153          143          143          143      2924207  0.041797918    14313.822 
   20097    5978.6632    5978.6632    5195.6719    5197.4397          143          143          143      2924207   0.13932649    14313.252 
   20098    5978.6632    5978.6632    5199.8792    5197.5133          143          143          143      2924207   0.18737481    14312.729 
   20099    5978.6632    5978.6632    5198.1796    5197.4359          143          143          143      2924207   0.16392185    14312.201 
   20100    5978.6632    5978.6632    5200.6756    5197.9399          143          143          143      2924207   0.21349542     14311.65 
   20101    5978.6632    5978.6632    5195.8646    5198.9893          143          143          143      2924207  0.078823121    14311.176 
   20102    5978.6632    5978.6632    5196.9867     5199.417          143          143          143      2924207  0.075807734    14310.877 
   20103    5978.6632    5978.6632    5195.2147    5197.9006          143          143          143      2924207  0.055920079     14310.57 
   20104    5978.6632    5978.6632    5196.4338     5197.239          143          143          143      2924207  0.074384103    14310.283 
   20105    5978.6632    5978.6632    5189.1958    5196.3907          143          143          143      2924207 0.00016067647    14310.107 
   20106    5978.6632    5978.6632    5190.1872    5195.8289          143          143          143      2924207 0.0072188641    14309.708 
   20107    5978.6632    5978.6632    5199.9471    5196.2564          143          143          143      2924207  0.099650259    14309.429 
   20108    5978.6632    5978.6632    5197.1268    5195.9812          143          143          143      2924207    0.1066727     14309.15 
   20109    5978.6632    5978.6632    5192.3195    5195.3952          143          143          143      2924207  0.031685121    14308.681 
   20110    5978.6632    5978.6632    5196.4635     5194.974          143          143          143      2924207   0.11507863    14308.434 
   20111    5978.6632    5978.6632    5206.9417    5196.0817          143          143          143      2924207   0.12006483    14308.028 
   20112    5978.6632    5978.6632    5203.1095     5196.694          143          143          143      2924207  0.040099953    14307.713 
   20113    5978.6632    5978.6632     5216.511    5198.8236          143          143          143      2924207   0.12863774     14307.32 
   20114    5978.6632    5978.6632    5207.8934    5199.9695          143          143          143      2924207   0.11188996    14307.042 
   20115    5978.6632    5978.6632    5214.0908    5202.4591          143          143          143      2924207  0.099546938    14306.458 
   20116    5978.6632    5978.6632    5199.4425    5203.3846          143          143          143      2924207  0.095500241    14306.205 
   20117    5978.6632    5978.6632    5198.0867    5203.1985          143          143          143      2924207  0.088654461    14305.817 
   20118    5978.6632    5978.6632    5186.6168    5202.1476          143          143          143      2924207  0.014541462    14305.604 
   20119    5978.6632    5978.6632    5193.7209    5202.2877          143          143          143      2924207 0.0078439501    14305.109 
   20120    5978.6632    5978.6632    5199.6686    5202.6082          143          143          143      2924207   0.10316647     14304.83 
   20121    5978.6632    5978.6632    5199.8264    5201.8967          143          143          143      2924207  0.053698482    14304.465 
   20122    5978.6632    5978.6632    5195.9202    5201.1777          143          143          143      2924207  0.071705419    14304.241 
   20123    5978.6632    5978.6632    5198.4182    5199.3685          143          143          143      2924207  0.082850802    14303.778 
   20124    5978.6632    5978.6632    5198.6038    5198.4395          143          143          143      2924207  0.063357958    14303.443 
   20125    5978.6632    5978.6632    5194.4532    5196.4757          143          143          143      2924207  0.059789611    14303.143 
   20126    5978.6632    5978.6632    5197.4452     5196.276          143          143          143      2924207  0.082928476    14302.834 
   20127    5978.6632    5978.6632    5204.6986    5196.9372          143          143          143      2924207   0.15910063    14302.386 
   20128    5978.6632    5978.6632    5198.1953     5198.095          143          143          143      2924207  0.058420463    14302.069 
   20129    5978.6632    5978.6632    5190.2736    5197.7503          143          143          143      2924207 0.00034234744    14301.874 
   20130    5978.6632    5978.6632    5189.5593    5196.7394          143          143          143      2924207 0.0020933891    14301.574 
   20131    5978.6632    5978.6632    5198.5484    5196.6116          143          143          143      2924207  0.067359105    14301.266 
   20132    5978.6632    5978.6632    5194.4336    5196.4629          143          143          143      2924207  0.024465442    14301.103 
   20133    5978.6632    5978.6632     5196.335    5196.2546          143          143          143      2924207  0.030937637    14300.626 
   20134    5978.6632    5978.6632    5192.6165    5195.6559          143          143          143      2924207  0.034867255    14300.503 
   20135    5978.6632    5978.6632     5198.451    5196.0556          143          143          143      2924207   0.03101995    14300.222 
   20136    5978.6632    5978.6632    5208.6708    5197.1782          143          143          143      2924207   0.12028244      14299.9 
   20137    5978.6632    5978.6632    5201.7494    5196.8833          143          143          143      2924207  0.063880559    14299.589 
   20138    5978.6632    5978.6632    5199.3128     5196.995          143          143          143      2924207  0.062938323    14299.288 
   20139    5978.6632    5978.6632    5196.5728     5197.625          143          143          143      2924207  0.032038134    14299.005 
   20140    5978.6632    5978.6632    5194.8517    5198.1542          143          143          143      2924207  0.055855267    14298.893 
   20141    5978.6632    5978.6632    5191.6628    5197.4656          143          143          143      2924207  0.016729773    14298.682 
   20142    5978.6632    5978.6632    5194.0194    5197.4242          143          143          143      2924207  0.027960359    14298.538 
   20143    5978.6632    5978.6632    5193.8576    5197.1765          143          143          143      2924207  0.016176679    14298.399 
   20144    5978.6632    5978.6632    5200.3098    5197.9458          143          143          143      2924207  0.038807536    14298.155 
   20145    5978.6632    5978.6632    5198.5169    5197.9524          143          143          143      2924207  0.042368265    14297.967 
   20146    5978.6632    5978.6632    5193.3821    5196.4235          143          143          143      2924207  0.043233205    14297.799 
   20147    5978.6632    5978.6632    5197.5692    5196.0055          143          143          143      2924207  0.055628526    14297.553 
   20148    5978.6632    5978.6632    5196.0972     5195.684          143          143          143      2924207  0.032921117    14297.406 
   20149    5978.6632    5978.6632    5200.4277    5196.0694          143          143          143      2924207   0.10198771    14297.162 
   20150    5978.6632    5978.6632    5195.1514    5196.0994          143          143          143      2924207  0.050898687    14296.906 
   20151    5978.6632    5978.6632    5195.2084     5196.454          143          143          143      2924207  0.072675126    14296.648 
   20152    5978.6632    5978.6632    5193.6579    5196.4178          143          143          143      2924207  0.032030566    14296.412 
   20153    5978.6632    5978.6632    5190.6426    5196.0963          143          143          143      2924207  0.038522439    14296.215 
   20154    5978.6632    5978.6632    5195.4624    5195.6116          143          143          143      2924207  0.029806561    14295.962 
   20155    5978.6632    5978.6632    5196.9277    5195.4527          143          143          143      2924207  0.064702625    14295.684 
   20156    5978.6632    5978.6632    5191.2878    5195.2432          143          143          143      2924207  0.035002701    14295.387 
   20157    5978.6632    5978.6632    5192.0413    5194.6904          143          143          143      2924207  0.036492939     14295.16 
   20158    5978.6632    5978.6632    5191.2918    5194.2099          143          143          143      2924207  0.024241177    14294.843 
   20159    5978.6632    5978.6632    5185.4628    5192.7134          143          143          143      2924207 1.0295448e-05    14294.755 
   20160    5978.6632    5978.6632    5187.4473     5191.943          143          143          143      2924207 0.00019424905    14294.524 
   20161    5978.6632    5978.6632    5196.1054    5192.0327          143          143          143      2924207   0.12598855    14294.249 
   20162    5978.6632    5978.6632    5197.4861    5192.4155          143          143          143      2924207  0.042532996    14294.043 
   20163    5978.6632    5978.6632    5195.9514    5192.9464          143          143          143      2924207  0.026141257    14293.834 
   20164    5978.6632    5978.6632    5190.0787     5192.408          143          143          143      2924207 0.0076022686    14293.652 
   20165    5978.6632    5978.6632    5198.3023    5192.5455          143          143          143      2924207  0.037810111    14293.219 
   20166    5978.6632    5978.6632    5189.7337    5192.3901          143          143          143      2924207 5.578395e-05    14293.122 
   20167    5978.6632    5978.6632     5188.026    5191.9885          143          143          143      2924207            0     14292.94 
   20168    5978.6632    5978.6632     5197.834    5192.6428          143          143          143      2924207    0.0293867    14292.714 
   20169    5978.6632    5978.6632     5189.032    5192.9997          143          143          143      2924207  0.008061111    14292.642 
   20170    5978.6632    5978.6632    5198.9458    5194.1495          143          143          143      2924207  0.028727371    14292.356 
   20171    5978.6632    5978.6632    5193.8725    5193.9262          143          143          143      2924207  0.015988956    14292.285 
   20172    5978.6632    5978.6632    5196.0341     5193.781          143          143          143      2924207  0.044714822    14292.211 
   20173    5978.6632    5978.6632    5198.2618    5194.0121          143          143          143      2924207  0.036451742     14292.07 
   20174    5978.6632    5978.6632    5194.5428    5194.4585          143          143          143      2924207  0.025530873    14291.966 
   20175    5978.6632    5978.6632    5200.9157    5194.7198          143          143          143      2924207   0.03626378     14291.75 
   20176    5978.6632    5978.6632    5193.0869    5195.0552          143          143          143      2924207  0.012111868     14291.66 
   20177    5978.6632    5978.6632    5193.7091    5195.6235          143          143          143      2924207   0.02268952    14291.548 
   20178    5978.6632    5978.6632      5192.15    5195.0551          143          143          143      2924207 0.0082500658    14291.498 
   20179    5978.6632    5978.6632    5196.7163    5195.8235          143          143          143      2924207  0.023731126    14291.389 
   20180    5978.6632    5978.6632    5194.4474    5195.3737          143          143          143      2924207  0.010724524    14291.313 
   20181    5978.6632    5978.6632     5197.604    5195.7468          143          143          143      2924207  0.024645143    14291.206 
   20182    5978.6632    5978.6632    5193.4634    5195.4897          143          143          143      2924207  0.010975739     14291.12 
   20183    5978.6632    5978.6632     5199.538    5195.6174          143          143          143      2924207  0.034704017    14290.957 
   20184    5978.6632    5978.6632    5199.0002    5196.0631          143          143          143      2924207  0.036451463    14290.832 
   20185    5978.6632    5978.6632    5197.3244     5195.704          143          143          143      2924207   0.02578139      14290.7 
   20186    5978.6632    5978.6632    5197.0376     5196.099          143          143          143      2924207   0.03531231    14290.588 
   20187    5978.6632    5978.6632    5194.5032    5196.1784          143          143          143      2924207  0.022517968    14290.486 
   20188    5978.6632    5978.6632    5196.0188    5196.5653          143          143          143      2924207  0.039027613    14290.346 
   20189    5978.6632    5978.6632    5194.8492    5196.3786          143          143          143      2924207  0.025324909    14290.241 
   20190    5978.6632    5978.6632     5193.344    5196.2683          143          143          143      2924207  0.026203067    14290.149 
   20191    5978.6632    5978.6632    5190.8594    5195.5938          143          143          143      2924207  0.024690439    14290.093 
   20192    5978.6632    5978.6632    5193.6572    5195.6132          143          143          143      2924207  0.017123099    14289.992 
   20193    5978.6632    5978.6632    5191.6025    5194.8196          143          143          143      2924207  0.013479419    14289.889 
   20194    5978.6632    5978.6632    5191.6776    5194.0874          143          143          143      2924207  0.010642533    14289.728 
   20195    5978.6632    5978.6632    5196.9986    5194.0548          143          143          143      2924207  0.034615847    14289.584 
   20196    5978.6632    5978.6632    5194.0277    5193.7538          143          143          143      2924207  0.014960595     14289.49 
   20197    5978.6632    5978.6632    5194.2944    5193.7329          143          143          143      2924207  0.030966576    14289.386 
   20198    5978.6632    5978.6632    5193.2163    5193.4527          143          143          143      2924207  0.026717977    14289.276 
   20199    5978.6632    5978.6632    5193.1765    5193.2854          143          143          143      2924207  0.025273086    14289.142 
   20200    5978.6632    5978.6632    5195.1645    5193.4675          143          143          143      2924207   0.03030566    14288.967 
   20201    5978.6632    5978.6632      5191.63    5193.5445          143          143          143      2924207  0.016723073    14288.845 
   20202    5978.6632    5978.6632    5193.5053    5193.5293          143          143          143      2924207  0.023669422    14288.745 
   20203    5978.6632    5978.6632    5191.6694     5193.536          143          143          143      2924207  0.017431752    14288.629 
   20204    5978.6632    5978.6632    5194.7419    5193.8425          143          143          143      2924207  0.026443317    14288.529 
   20205    5978.6632    5978.6632    5192.3883    5193.3814          143          143          143      2924207  0.023153995    14288.428 
   20206    5978.6632    5978.6632    5188.3305    5192.8117          143          143          143      2924207 0.0069784956    14288.342 
   20207    5978.6632    5978.6632    5195.1566    5192.8979          143          143          143      2924207  0.023020692    14288.224 
   20208    5978.6632    5978.6632    5190.5548    5192.6318          143          143          143      2924207 0.0095008741     14288.14 
   20209    5978.6632    5978.6632    5196.0581    5192.9199          143          143          143      2924207  0.029648067    14287.988 
   20210    5978.6632    5978.6632    5190.9544    5192.4989          143          143          143      2924207 0.0091119011    14287.907 
   20211    5978.6632    5978.6632    5195.2439    5192.8603          143          143          143      2924207  0.025052028    14287.781 
   20212    5978.6632    5978.6632     5193.021    5192.8119          143          143          143      2924207  0.013180981    14287.715 
   20213    5978.6632    5978.6632    5196.6544    5193.3104          143          143          143      2924207  0.030355481    14287.605 
   20214    5978.6632    5978.6632    5191.9284     5193.029          143          143          143      2924207 0.0091133947    14287.518 
   20215    5978.6632    5978.6632    5191.0842    5192.8986          143          143          143      2924207  0.021810322    14287.477 
   20216    5978.6632    5978.6632    5192.8445      5193.35          143          143          143      2924207  0.014075905    14287.371 
   20217    5978.6632    5978.6632    5193.7873    5193.2131          143          143          143      2924207  0.019702473    14287.287 
   20218    5978.6632    5978.6632    5192.2242      5193.38          143          143          143      2924207  0.012047893    14287.204 
   20219    5978.6632    5978.6632    5192.2948    5193.0037          143          143          143      2924207  0.017663626     14287.15 
   20220    5978.6632    5978.6632    5192.5918    5193.1674          143          143          143      2924207 0.0099817265    14287.092 
   20221    5978.6632    5978.6632    5194.9001    5193.1331          143          143          143      2924207  0.024587138    14287.017 
   20222    5978.6632    5978.6632    5192.9127    5193.1222          143          143          143      2924207  0.011002134     14286.94 
   20223    5978.6632    5978.6632    5194.9002    5192.9468          143          143          143      2924207  0.022863279    14286.873 
   20224    5978.6632    5978.6632    5192.0299     5192.957          143          143          143      2924207  0.012135747    14286.814 
   20225    5978.6632    5978.6632    5193.7756    5193.2261          143          143          143      2924207  0.013733633    14286.759 
   20226    5978.6632    5978.6632      5193.28    5193.2697          143          143          143      2924207  0.017373423    14286.701 
   20227    5978.6632    5978.6632    5192.2925    5193.1202          143          143          143      2924207  0.010023542    14286.642 
   20228    5978.6632    5978.6632    5193.3392    5193.2317          143          143          143      2924207  0.011341527    14286.562 
   20229    5978.6632    5978.6632    5194.3386    5193.4361          143          143          143      2924207  0.013040337    14286.522 
   20230    5978.6632    5978.6632    5194.5297    5193.6299          143          143          143      2924207  0.013995265     14286.46 
   20231    5978.6632    5978.6632     5193.792     5193.519          143          143          143      2924207  0.012806555    14286.405 
   20232    5978.6632    5978.6632    5195.1685    5193.7446          143          143          143      2924207  0.012267624    14286.348 
   20233    5978.6632    5978.6632    5193.7395    5193.6286          143          143          143      2924207  0.010106839    14286.291 
   20234    5978.6632    5978.6632    5193.6505    5193.7906          143          143          143      2924207  0.014174935    14286.241 
   20235    5978.6632    5978.6632    5192.9105    5193.7041          143          143          143      2924207  0.010833459    14286.197 
   20236    5978.6632    5978.6632    5192.9988     5193.676          143          143          143      2924207 0.0080845847    14286.135 
   20237    5978.6632    5978.6632    5193.7964    5193.8264          143          143          143      2924207  0.015207841    14286.085 
   20238    5978.6632    5978.6632    5193.2773    5193.8202          143          143          143      2924207  0.010337192     14286.03 
   20239    5978.6632    5978.6632    5192.6103    5193.6474          143          143          143      2924207  0.013465273    14285.982 
   20240    5978.6632    5978.6632    5191.1609    5193.3105          143          143          143      2924207 0.0077594969    14285.932 
   20241    5978.6632    5978.6632    5192.8454    5193.2158          143          143          143      2924207  0.011694312     14285.89 
   20242    5978.6632    5978.6632    5191.7943    5192.8784          143          143          143      2924207 0.0092726708    14285.837 
   20243    5978.6632    5978.6632    5191.9594    5192.7004          143          143          143      2924207  0.014443292     14285.78 
   20244    5978.6632    5978.6632    5192.6155    5192.5969          143          143          143      2924207 0.0078751463     14285.75 
   20245    5978.6632    5978.6632    5194.5972    5192.7656          143          143          143      2924207  0.014951692    14285.708 
   20246    5978.6632    5978.6632    5191.8595    5192.6516          143          143          143      2924207 0.0099204001    14285.661 
   20247    5978.6632    5978.6632    5194.2786    5192.6998          143          143          143      2924207  0.012294468     14285.62 
   20248    5978.6632    5978.6632    5192.7656    5192.6487          143          143          143      2924207 0.0081211526    14285.584 
   20249    5978.6632    5978.6632    5193.6641     5192.754          143          143          143      2924207 0.0093326361    14285.547 
   20250    5978.6632    5978.6632    5193.1933    5192.9573          143          143          143      2924207  0.010656305    14285.503 
   20251    5978.6632    5978.6632    5192.8521     5192.958          143          143          143      2924207 0.0074186367    14285.468 
   20252    5978.6632    5978.6632    5191.4076    5192.9193          143          143          143      2924207 0.0054385199    14285.409 
   20253    5978.6632    5978.6632    5192.9302    5193.0164          143          143          143      2924207  0.012376642    14285.374 
   20254    5978.6632    5978.6632    5192.7584    5193.0307          143          143          143      2924207 0.0092952882    14285.338 
   20255    5978.6632    5978.6632    5192.9727    5192.8682          143          143          143      2924207  0.011503857    14285.295 
   20256    5978.6632    5978.6632    5192.9249    5192.9747          143          143          143      2924207 0.0098366969    14285.264 
   20257    5978.6632    5978.6632    5192.3558    5192.7825          143          143          143      2924207 0.0078978624    14285.216 
   20258    5978.6632    5978.6632    5193.4077    5192.8467          143          143          143      2924207 0.0087020103    14285.185 
   20259    5978.6632    5978.6632    5193.6551    5192.8458          143          143          143      2924207 0.0093523491    14285.156 
   20260    5978.6632    5978.6632    5193.4539    5192.8718          143          143          143      2924207 0.0076170695    14285.123 
   20261    5978.6632    5978.6632    5192.8923    5192.8759          143          143          143      2924207 0.0052005765     14285.08 
   20262    5978.6632    5978.6632    5192.9989     5193.035          143          143          143      2924207  0.010490517    14285.045 
   20263    5978.6632    5978.6632    5193.5341    5193.0954          143          143          143      2924207 0.0086986779    14285.014 
   20264    5978.6632    5978.6632    5192.9502    5193.1146          143          143          143      2924207 0.0080220845    14284.988 
   20265    5978.6632    5978.6632    5193.2408    5193.1414          143          143          143      2924207 0.0063153495    14284.967 
   20266    5978.6632    5978.6632    5193.8017    5193.2291          143          143          143      2924207  0.010865997     14284.94 
   20267    5978.6632    5978.6632    5193.1708    5193.3105          143          143          143      2924207 0.0069237365    14284.912 
   20268    5978.6632    5978.6632    5192.9234    5193.2621          143          143          143      2924207 0.0091146249    14284.883 
   20269    5978.6632    5978.6632    5192.5551    5193.1521          143          143          143      2924207  0.010128093     14284.85 
   20270    5978.6632    5978.6632    5192.2046    5193.0272          143          143          143      2924207 0.0048612582    14284.822 
   20271    5978.6632    5978.6632    5193.0729    5193.0453          143          143          143      2924207  0.006054967    14284.798 
   20272    5978.6632    5978.6632    5193.4437    5193.0897          143          143          143      2924207  0.006765887    14284.771 
   20273    5978.6632    5978.6632    5192.6243    5192.9988          143          143          143      2924207 0.0068682463    14284.741 
   20274    5978.6632    5978.6632     5192.474    5192.9511          143          143          143      2924207 0.0071937858     14284.72 
   20275    5978.6632    5978.6632    5193.0976    5192.9368          143          143          143      2924207 0.0069522158    14284.693 
   20276    5978.6632    5978.6632    5192.7301    5192.8296          143          143          143      2924207 0.0087785276    14284.664 
   20277    5978.6632    5978.6632     5192.242    5192.7368          143          143          143      2924207 0.0035292924    14284.644 
   20278    5978.6632    5978.6632    5193.4764    5192.7921          143          143          143      2924207 0.0084710975     14284.62 
   20279    5978.6632    5978.6632    5192.8242     5192.819          143          143          143      2924207 0.0051941547      14284.6 
   20280    5978.6632    5978.6632    5193.2883    5192.9273          143          143          143      2924207  0.007272877    14284.574 
   20281    5978.6632    5978.6632    5193.4121    5192.9613          143          143          143      2924207 0.0054399911    14284.549 
   20282    5978.6632    5978.6632    5193.6228    5192.9792          143          143          143      2924207 0.0062700387    14284.526 
   20283    5978.6632    5978.6632    5192.8691    5193.0036          143          143          143      2924207 0.0057647664    14284.509 
   20284    5978.6632    5978.6632    5192.8191    5193.0382          143          143          143      2924207 0.0046797116    14284.489 
   20285    5978.6632    5978.6632    5192.7518    5193.0036          143          143          143      2924207 0.0065269109    14284.472 
   20286    5978.6632    5978.6632    5193.1112    5193.0417          143          143          143      2924207 0.0065169869    14284.453 
   20287    5978.6632    5978.6632    5193.2584    5193.1433          143          143          143      2924207 0.0067200355    14284.433 
   20288    5978.6632    5978.6632    5192.0441    5193.0001          143          143          143      2924207  0.004129235    14284.415 
   20289    5978.6632    5978.6632    5192.4833     5192.966          143          143          143      2924207 0.0034573394    14284.403 
   20290    5978.6632    5978.6632    5192.9744    5192.9346          143          143          143      2924207 0.0056985195    14284.385 
   20291    5978.6632    5978.6632    5192.8156     5192.875          143          143          143      2924207 0.0059169032    14284.368 
   20292    5978.6632    5978.6632     5192.774    5192.7901          143          143          143      2924207 0.0044569325    14284.354 
   20293    5978.6632    5978.6632    5192.8607    5192.7892          143          143          143      2924207 0.0045611965    14284.336 
   20294    5978.6632    5978.6632     5192.995    5192.8068          143          143          143      2924207 0.0054286121    14284.316 
   20295    5978.6632    5978.6632    5192.9454    5192.8262          143          143          143      2924207 0.0039637093    14284.303 
   20296    5978.6632    5978.6632    5192.7184    5192.7869          143          143          143      2924207 0.0047456701    14284.291 
   20297    5978.6632    5978.6632    5193.3958    5192.8007          143          143          143      2924207 0.0074767383    14284.272 
   20298    5978.6632    5978.6632    5193.2777     5192.924          143          143          143      2924207 0.0048474354    14284.257 
   20299    5978.6632    5978.6632    5192.7132     5192.947          143          143          143      2924207 0.0035012025     14284.24 
   20300    5978.6632    5978.6632    5193.0911    5192.9587          143          143          143      2924207 0.0035480089    14284.229 
   20301    5978.6632    5978.6632    5192.8605    5192.9632          143          143          143      2924207  0.003488753    14284.216 
   20302    5978.6632    5978.6632    5193.2212    5193.0079          143          143          143      2924207 0.0047049713    14284.202 
   20303    5978.6632    5978.6632    5193.5831    5193.0801          143          143          143      2924207 0.0043810556    14284.189 
   20304    5978.6632    5978.6632    5193.3804    5193.1187          143          143          143      2924207 0.0047255425    14284.174 
   20305    5978.6632    5978.6632    5193.1741    5193.1416          143          143          143      2924207 0.0039039287    14284.164 
   20306    5978.6632    5978.6632    5192.9251    5193.1622          143          143          143      2924207 0.0034118059    14284.154 
   20307    5978.6632    5978.6632    5192.9879    5193.1214          143          143          143      2924207 0.0028201181    14284.144 
   20308    5978.6632    5978.6632    5193.0434     5193.098          143          143          143      2924207 0.0036964587    14284.135 
   20309    5978.6632    5978.6632     5192.576    5193.0843          143          143          143      2924207 0.0042250731    14284.123 
   20310    5978.6632    5978.6632    5192.4093    5193.0161          143          143          143      2924207  0.003228173     14284.11 
   20311    5978.6632    5978.6632     5192.637    5192.9937          143          143          143      2924207 0.0032860665    14284.099 
   20312    5978.6632    5978.6632    5193.3674    5193.0084          143          143          143      2924207 0.0034460864    14284.089 
   20313    5978.6632    5978.6632    5192.5337    5192.9034          143          143          143      2924207 0.0029084512     14284.08 
   20314    5978.6632    5978.6632     5194.316     5192.997          143          143          143      2924207 0.0061254823    14284.069 
   20315    5978.6632    5978.6632    5192.7962    5192.9592          143          143          143      2924207 0.0035248873    14284.055 
   20316    5978.6632    5978.6632    5193.1817    5192.9849          143          143          143      2924207 0.0026512138    14284.047 
   20317    5978.6632    5978.6632    5193.2129    5193.0074          143          143          143      2924207 0.0042363309    14284.036 
   20318    5978.6632    5978.6632    5193.1995     5193.023          143          143          143      2924207 0.0031264686    14284.027 
   20319    5978.6632    5978.6632    5193.3895    5193.1043          143          143          143      2924207 0.0037934316    14284.018 
   20320    5978.6632    5978.6632     5193.311    5193.1945          143          143          143      2924207 0.0031020191    14284.007 
   20321    5978.6632    5978.6632    5193.1158    5193.2424          143          143          143      2924207 0.0026938559    14283.998 
   20322    5978.6632    5978.6632    5193.4547    5193.2511          143          143          143      2924207  0.003564279    14283.991 
   20323    5978.6632    5978.6632    5192.6802    5193.2658          143          143          143      2924207  0.002412268     14283.98 
   20324    5978.6632    5978.6632    5192.7569    5193.1099          143          143          143      2924207 0.0021486699    14283.973 
   20325    5978.6632    5978.6632    5193.0966    5193.1399          143          143          143      2924207 0.0024519838    14283.965 
   20326    5978.6632    5978.6632    5193.2875    5193.1505          143          143          143      2924207 0.0032464571    14283.958 
   20327    5978.6632    5978.6632    5192.9665    5193.1258          143          143          143      2924207 0.0023422359    14283.948 
   20328    5978.6632    5978.6632    5193.5632    5193.1622          143          143          143      2924207 0.0027934647    14283.939 
   20329    5978.6632    5978.6632    5193.2339    5193.1466          143          143          143      2924207 0.0025413202     14283.93 
   20330    5978.6632    5978.6632    5192.8497    5193.1005          143          143          143      2924207 0.0028705484    14283.924 
   20331    5978.6632    5978.6632    5190.1405     5192.803          143          143          143      2924207 7.6999584e-07     14283.92 
Loop time of 5.74537 on 48 procs for 331 steps with 18400 atoms

Minimization stats:
  E initial, next-to-last, final = 4105 65.1235 65.1202
  Gradient 2-norm init/final= 678.716 0.805716
  Gradient inf-norm init/final= 49.859 0.0513908
  Iterations = 331
  Force evaluations = 2142

Pair  time (%) = 0.0818481 (1.42459)
Bond  time (%) = 0.23281 (4.05213)
Neigh time (%) = 0.00036793 (0.00640393)
Comm  time (%) = 2.8667 (49.8958)
Outpt time (%) = 0.442776 (7.70665)
Other time (%) = 2.12087 (36.9144)

Nlocal:    383.333 ave 426 max 350 min
Histogram: 5 7 4 6 4 7 8 3 2 2
Nghost:    374.5 ave 436 max 328 min
Histogram: 3 4 6 10 6 9 5 2 2 1
Neighs:    403.396 ave 514 max 283 min
Histogram: 1 1 4 4 6 19 6 4 2 1

Total # of neighbors = 19363
Ave neighs/atom = 1.05234
Ave special neighs/atom = 1.95652
Neighbor list builds = 1
Dangerous builds = 0

#########################################################################
# simulated annealing to create structure
pair_style sw
pair_coeff * * OCS.sw Si O C

thermo		100

unfix		1
fix		1 active npt 9000 3000 0.0100 xyz 90000 60000 0.1000 drag 2.00
run		50000
Memory usage per processor = 2.64744 Mbytes
Step Temp T_ave Press P_ave Lx Ly Lz Volume E_pair TotEng 
   20331    5978.6632    5978.6632    11000.348     5192.803          143          143          143      2924207    3658.9094     17942.83 
   20400    8957.3189    6276.5288    88593.411    13532.799    87.051227    87.051227    87.051227    659666.89   -595.13998    25319.523 
   20500     8953.342    6573.9967    89239.925    21937.523    79.804572    79.804572    79.804572    508256.93   -5075.7341     21524.13 
   20600    9004.3957    6876.5699    89427.722     30361.02    79.194723    79.194723    79.194723    496693.79   -6383.2292    20760.372 
   20700    8923.4062    7171.0442    90240.744    38865.784    78.796263    78.796263    78.796263    489234.26   -6726.3163    20311.726 
   20800    8904.4033    7463.6182    87954.075    47141.863    78.674354    78.674354    78.674354    486967.02   -6893.4734    20005.675 
   20900    8946.6473    7760.4166    92440.451    55866.612    78.591534    78.591534    78.591534    485430.77   -7103.1104    19801.744 
   21000    8931.6174     8055.712    90140.098    64361.265    78.637001    78.637001    78.637001    486273.75   -6867.2768    20121.318 
   21100    8835.6819    8341.4139    92418.142    73083.756    78.599028    78.599028    78.599028    485569.65   -6889.4477    19851.438 
   21200    8905.8184    8634.1294    89158.119    81480.283    78.585205    78.585205    78.585205     485313.5   -7175.8617    19742.395 
   21300     8920.135    8928.2766    89834.306    89944.699    78.536607    78.536607    78.536607    484413.68   -7045.7138    19832.919 
   21400    8877.4986    8920.2946    91153.191    90200.677    78.615942    78.615942    78.615942    485883.17   -7031.5879    19738.078 
   21500    8840.7211    8909.0325    85773.744    89854.059    78.518239    78.518239    78.518239    484073.88   -7213.3223     19486.01 
   21600    8793.4867    8887.9416    86715.096    89582.797    78.560958    78.560958    78.560958    484864.42   -7216.8899    19387.594 
   21700    8794.9299    8875.0939    87756.807    89334.403    78.473238    78.473238    78.473238    483242.05   -7138.3339    19573.707 
   21800     8805.034     8865.157    89011.635    89440.159     78.49881     78.49881     78.49881    483714.63   -7263.6149    19344.269 
   21900    8805.4162    8851.0339    87316.244    88927.738    78.505347    78.505347    78.505347    483835.48   -7290.7366    19417.233 
   22000    8760.5184     8833.924    86417.859    88555.514    78.521748    78.521748    78.521748    484138.78   -7254.6586    19401.378 
   22100    8801.4987    8830.5057    90774.422    88391.142    78.445262    78.445262    78.445262     482725.4   -7056.6271     19449.85 
   22200    8864.3171    8826.3556    86856.551    88160.985    78.598355    78.598355    78.598355    485557.18   -7269.7955    19379.704 
   22300    8698.9179    8804.2339    88476.913    88025.246    78.489287    78.489287    78.489287    483538.61   -7227.0422    19182.232 
   22400    8778.1055    8794.2945    85581.726      87468.1    78.500329    78.500329    78.500329    483742.71   -7309.6337    19153.518 
   22500    8765.7893    8786.8014     90314.57    87922.182    78.295122    78.295122    78.295122    479958.98   -7330.1337    19132.668 
   22600    8742.4565    8781.6983    87497.318    88000.405    78.449982    78.449982    78.449982    482812.55   -7284.9696    19042.683 
   22700    8688.2563     8771.031    86668.426    87891.566    78.453154    78.453154    78.453154     482871.1   -7308.5601    18889.805 
   22800    8720.9084    8762.6184     86370.04    87627.407    78.380243    78.380243    78.380243    481526.08   -7375.7753    19031.693 
   22900    8694.6244    8751.5392    85696.406    87465.423    78.456055    78.456055    78.456055    482924.68   -7455.2041    18797.047 
   23000    8640.2607    8739.5135    90097.659    87833.403    78.329682    78.329682    78.329682    480594.82   -7236.4562    18885.451 
   23100    8633.8801    8722.7516    88125.804    87568.541    78.311359    78.311359    78.311359    480257.63   -7323.5028    18789.883 
   23200     8607.119    8697.0318    87699.842     87652.87     78.28783     78.28783     78.28783    479824.88   -7349.7716    18760.044 
   23300    8705.5616    8697.6962    88380.897    87643.269    78.434238    78.434238    78.434238    482521.91   -7363.7802    18831.104 
   23400    8630.7574    8682.9614    89248.267    88009.923    78.411056    78.411056    78.411056    482094.19   -7245.1078    18845.428 
   23500    8592.8942    8665.6719    90875.215    88065.987    78.247446    78.247446    78.247446    479082.73   -7341.1152    18625.108 
   23600    8606.8752    8652.1137    91880.122    88504.268    78.230146    78.230146    78.230146    478765.04   -7399.5282    18626.738 
   23700    8544.8555    8637.7737    87695.162    88606.941    78.215387    78.215387    78.215387     478494.1   -7425.9938    18513.864 
   23800    8552.8629    8620.9691    86836.175    88653.555    78.173884    78.173884    78.173884     477732.8   -7671.6366    18272.141 
   23900    8577.9265    8609.2993    86414.644    88725.379    78.184462    78.184462    78.184462    477926.76   -7637.2408    18328.496 
   24000    8550.0245    8600.2757    89333.621    88648.975    78.173426    78.173426    78.173426    477724.42    -7518.317    18461.355 
   24100    8511.0531     8587.993    90018.654     88838.26    78.258695    78.258695    78.258695    479289.38   -7391.1626    18418.602 
   24200    8570.6865    8584.3498    84924.226    88560.698     78.22498     78.22498     78.22498    478670.18   -7577.7973    18404.002 
   24300    8514.9004    8565.2836    89207.669    88643.376    78.127854    78.127854    78.127854    476889.43   -7490.7697    18294.829 
   24400    8498.8772    8552.0956    85816.762    88300.225    78.189216    78.189216    78.189216    478013.95   -7490.5463    18229.015 
   24500     8563.141    8549.1203    86647.505    87877.454    78.188587    78.188587    78.188587    478002.43   -7560.5794    18295.178 
   24600    8465.6835    8535.0011    84988.532    87188.295    78.264206    78.264206    78.264206    479390.63   -7539.0418    18086.901 
   24700    8451.3853    8525.6541    86759.738    87094.753    78.126336    78.126336    78.126336    476861.62   -7567.7816    18073.028 
   24800    8414.9606    8511.8639    87455.992    87156.734    78.029171    78.029171    78.029171    475084.63   -7623.6624    17990.225 
   24900    8434.8461    8497.5558     86803.95    87195.665    78.127443    78.127443    78.127443    476881.89   -7600.7454    17846.874 
   25000    8411.6011    8483.7135    89845.662    87246.869    78.079201    78.079201    78.079201    475999.05   -7528.5465    17939.487 
   25100    8449.9281     8477.601    89144.489    87159.452    78.151774    78.151774    78.151774    477327.58   -7592.0159     17852.46 
   25200    8352.1529    8455.7476    85768.529    87243.883    78.256827    78.256827    78.256827    479255.05   -7615.8517    17734.538 
   25300    8391.6461    8443.4222    85166.003    86839.716    78.142874    78.142874    78.142874    477164.52   -7735.3038     17728.96 
   25400    8446.7466    8438.2091    85715.436    86829.583    78.183454    78.183454    78.183454    477908.28   -7720.9121    17802.951 
   25500    8371.4787    8419.0429    87651.062    86929.939    78.204336    78.204336    78.204336    478291.31   -7577.7645     17750.06 
   25600     8400.254       8412.5    87319.011    87162.987    78.177254    78.177254    78.177254    477794.59   -7624.8555    17804.557 
   25700    8369.6372    8404.3251    87159.957    87203.009    78.021835    78.021835    78.021835    474950.64   -7819.0197    17552.595 
   25800    8355.4073    8398.3698    89215.849    87378.995    78.095595    78.095595    78.095595    476298.93   -7674.4852    17478.803 
   25900    8258.7883     8380.764    86441.672    87342.767    78.091119    78.091119    78.091119    476217.04    -7553.739    17424.016 
   26000    8332.7181    8372.8757    83591.584    86717.359    78.191248    78.191248    78.191248    478051.23   -7692.8486    17482.414 
   26100     8332.192    8361.1021    86264.835    86429.394    78.084958    78.084958    78.084958    476104.35     -7709.82    17512.969 
   26200    8237.1541    8349.6022    87959.216    86648.462    77.994694    77.994694    77.994694    474455.16   -7637.6705    17386.292 
   26300    8280.7048    8338.5081    86527.415    86784.604    77.982849    77.982849    77.982849    474239.03   -7750.9225    17366.167 
   26400    8274.5394    8321.2874    86052.419    86818.302    78.056367    78.056367    78.056367    475581.55   -7846.2278    17217.969 
   26500    8265.4694    8310.6865    86487.642     86701.96    77.974085    77.974085    77.974085    474079.16   -7835.8919    17221.383 
   26600    8292.5033    8299.9114    83788.948    86348.954    78.093707    78.093707    78.093707     476264.4   -7808.5219    17328.722 
   26700    8207.9837     8283.746    85984.935    86231.451    78.051542    78.051542    78.051542    475493.36   -7815.5641    17102.602 
   26800    8174.4204    8265.6474    84712.381    85781.105    77.925344    77.925344    77.925344    473190.69   -7979.0494    16912.501 
   26900     8268.959    8266.6644    83831.814    85520.119     77.92467     77.92467     77.92467     473178.4    -7918.676    17153.223 
   27000    8256.9287    8259.0855    86494.178    85810.378    77.971973    77.971973    77.971973    474040.63   -7845.0518    17141.235 
   27100    8156.4181    8241.5081    84973.568    85681.252    77.947966    77.947966    77.947966    473602.91   -7938.5188    16757.673 
   27200    8224.4195    8240.2346    86062.617    85491.592    77.858881    77.858881    77.858881    471980.95   -7924.5578    16878.802 
   27300    8215.7517    8233.7393    84566.902     85295.54    77.955373    77.955373    77.955373    473737.94   -7990.4274    16838.404 
   27400    8102.4812    8216.5335    85908.506    85281.149    77.995258    77.995258    77.995258    474465.46   -7967.8899    16578.653 
   27500    8130.2691    8203.0135    87815.655     85413.95    77.884799    77.884799    77.884799    472452.45   -7911.5254    16713.474 
   27600    8101.1874    8183.8819    86937.175    85728.773    77.869841    77.869841    77.869841    472180.29   -7937.1439    16627.132 
   27700    8127.8665    8175.8702     86747.07    85804.986    77.950582    77.950582    77.950582     473650.6   -7934.2047    16665.503 
   27800     8125.938    8171.0219    84707.066    85804.455    77.885469    77.885469    77.885469    472464.65   -7989.4559    16651.451 
   27900    8103.4738    8154.4734    85692.512    85990.525    77.969984    77.969984    77.969984    474004.36   -8077.3942     16451.47 
   28000    8095.8656    8138.3671    85678.882    85908.995    77.846263    77.846263    77.846263    471751.53   -8018.1853    16440.863 
   28100    8052.0991    8127.9352    85826.434    85994.282    77.832184    77.832184    77.832184    471495.61   -7885.3148    16522.427 
   28200     8093.735    8114.8667    87012.744    86089.295    77.905086    77.905086    77.905086    472821.73   -8141.4437    16395.667 
   28300    8070.3914    8100.3307    86935.465    86326.151    77.859129    77.859129    77.859129    471985.46   -8138.7102    16420.485 
   28400    8028.8289    8092.9655     83369.28    86072.228    77.826592    77.826592    77.826592    471393.98   -8164.4929    16217.156 
   28500    8067.2005    8086.6586    84796.891    85770.352      77.8285      77.8285      77.8285    471428.66   -8132.5647    16319.523 
   28600    8061.3356    8082.6735    84864.457     85563.08    77.853041    77.853041    77.853041    471874.76   -8099.5632    16287.506 
   28700    8003.5891    8070.2457    84967.057    85385.079    77.880253    77.880253    77.880253    472369.73   -8127.4345    16052.922 
   28800     7940.945    8051.7464    85431.206    85457.493    77.860481    77.860481    77.860481    472010.05   -8124.1451    15970.907 
   28900    7948.2716    8036.2262    83665.621    85254.804    77.878305    77.878305    77.878305    472334.29   -8182.2368    15947.624 
   29000    7904.6379    8017.1034    85827.363    85269.652    77.782994    77.782994    77.782994    470602.21   -8027.9946    16031.469 
   29100    7944.4009    8006.3336    84354.797    85122.488    77.693425    77.693425    77.693425    468978.36   -8125.0681    16047.266 
   29200    7924.9577    7989.4559    83432.729    84764.487    77.747911    77.747911    77.747911    469965.73   -8267.5508    15775.868 
   29300    7930.1836    7975.4351    82775.231    84348.463     77.72401     77.72401     77.72401    469532.44   -8257.3428    15788.587 
   29400    7869.8274    7959.5349    87990.003    84810.535    77.661874    77.661874    77.661874    468407.24   -8161.3021    15645.477 
   29500    7913.0531    7944.1202    84029.422    84733.789    77.735543    77.735543    77.735543    469741.48   -8300.0781    15595.903 
   29600    7898.0226    7927.7889    83586.569        84606     77.71383     77.71383     77.71383    469347.97   -8306.2959      15658.6 
   29700    7825.7435    7910.0043    82891.591    84398.453      77.7818      77.7818      77.7818    470580.54   -8249.5902     15512.07 
   29800    7846.6621     7900.576     83610.69    84216.401    77.767366    77.767366    77.767366    470318.62   -8266.9556    15538.109 
   29900    7839.1562    7889.6645    83238.139    84173.653    77.618666    77.618666    77.618666    467625.87   -8320.6126    15415.636 
   30000    7826.8123    7881.8819    83014.237    83892.341    77.604652    77.604652    77.604652    467372.63   -8354.1926    15425.514 
   30100     7854.001    7872.8419     82212.33    83678.094    77.585535    77.585535    77.585535     467027.3   -8480.1468    15380.881 
   30200    7859.3017    7866.2764    85590.382    83893.859    77.645582    77.645582    77.645582    468112.51   -8424.8649    15314.625 
   30300     7782.487    7851.5067    84162.718    84032.608    77.656375    77.656375    77.656375    468307.74   -8427.6702    15170.275 
   30400    7753.2213    7839.8461    86466.443    83880.252    77.658568    77.658568    77.658568    468347.42   -8414.0809    15140.801 
   30500    7798.9852    7828.4393    84528.303     83930.14    77.570315    77.570315    77.570315    466752.51   -8562.4332      15028.4 
   30600    7749.3867    7813.5757    82505.545    83822.038     77.61439     77.61439     77.61439    467548.58   -8366.6221    15214.921 
   30700    7788.4524    7809.8466    82980.428    83830.922    77.658895    77.658895    77.658895    468353.35   -8555.8565    15155.809 
   30800     7728.328    7798.0132    86276.863    84097.539     77.49557     77.49557     77.49557    465404.56   -8581.0605    14961.933 
   30900    7718.7681    7785.9744     82899.06    84063.631    77.421815    77.421815    77.421815       464077    -8645.437    14751.665 
   31000    7707.3242    7774.0256    82258.038    83988.011    77.596276    77.596276    77.596276    467221.31   -8458.5796    14862.332 
   31100    7682.1002    7756.8355    86668.661    84433.644    77.590753    77.590753    77.590753    467121.54   -8567.9546    14742.355 
   31200    7699.4711    7740.8524    88220.981    84696.704    77.505099    77.505099    77.505099    465576.26   -8487.6851    14794.883 
   31300    7745.8951    7737.1932    82983.368    84578.769    77.559841    77.559841    77.559841    466563.47   -8688.9499    14721.736 
   31400    7719.4444    7733.8155    82404.146    84172.539    77.380714    77.380714    77.380714     463338.3   -8873.1916    14553.744 
   31500    7643.5083    7718.2678    87211.156    84440.825    77.351745    77.351745    77.351745    462818.11    -8557.806    14686.018 
   31600    7649.3996    7708.2691    84893.971    84679.667    77.439435    77.439435    77.439435    464393.92   -8544.3466     14722.69 
   31700    7696.3317    7699.0571    81973.545    84578.979    77.341195    77.341195    77.341195    462628.76   -8703.0167    14503.819 
   31800    7605.1126    7686.7355    82380.162    84189.309    77.456405    77.456405    77.456405    464699.29   -8646.9319    14456.637 
   31900    7644.3677    7679.2955    84264.095    84325.812    77.430127    77.430127    77.430127    464226.49   -8811.4855    14290.282 
   32000    7697.1479    7678.2779    86111.557    84711.164     77.43354     77.43354     77.43354    464287.88   -8840.8724    14380.092 
   32100    7556.3174    7665.6996    81821.531    84226.451    77.391263    77.391263    77.391263    463527.82   -8823.1878    14088.429 
   32200    7589.7225    7654.7247    86228.206    84027.174    77.299757    77.299757    77.299757    461885.56   -8685.1406    14276.426 
   32300    7605.2263    7640.6578    79813.101    83710.147    77.378498    77.378498    77.378498    463298.49   -8862.5962    14212.917 
   32400    7561.3667    7624.8501    82660.204    83735.753    77.412702    77.412702    77.412702    463913.14   -8735.6625    14228.284 
   32500    7536.9802    7614.1973    83465.626      83361.2    77.349136    77.349136    77.349136    462771.29   -8686.4571    14190.121 
   32600    7489.4733    7598.2046    86064.936    83478.296    77.385138    77.385138    77.385138    463417.77   -8790.3231    13915.922 
   32700    7531.0818    7581.6796    80610.096    83341.951    77.392424    77.392424    77.392424    463548.67    -8868.526     14068.61 
   32800    7476.2546    7568.7938    83926.011    83496.536    77.288076    77.288076    77.288076     461676.2   -8815.3248    13856.182 
   32900    7492.2314    7553.5802    82745.085    83344.635    77.307523    77.307523    77.307523    462024.78   -8927.3295     13853.77 
   33000    7514.7768    7535.3431    81181.998    82851.679    77.381498    77.381498    77.381498    463352.39   -8857.7992    13951.323 
   33100    7528.2483    7532.5362    81275.761    82797.102    77.333966    77.333966    77.333966    462499.06   -8982.6926     13833.22 
   33200    7421.0587    7515.6698     81582.71    82332.553    77.302783    77.302783    77.302783    461939.81   -8917.6379     13658.45 
   33300    7427.7636    7497.9235    83671.947    82718.437     77.27439     77.27439     77.27439    461430.99   -8855.2584    13713.938 
   33400    7451.2463    7486.9115    82362.183    82688.635     77.24011     77.24011     77.24011    460817.17   -9000.7957    13636.969 
   33500    7433.7304    7476.5865    81466.011    82488.674    77.327588    77.327588    77.327588    462384.63    -8899.595    13648.934 
   33600    7461.3568    7473.7749    81098.623    81992.042      77.3498      77.3498      77.3498     462783.2   -8991.3686    13614.177 
   33700    7417.9082    7462.4575    79109.902    81842.023    77.372676    77.372676    77.372676    463193.92   -9010.5307    13513.291 
   33800    7357.9739    7450.6295    82024.287    81651.851    77.346074    77.346074    77.346074    462716.33   -8967.6858    13424.893 
   33900    7396.9833    7441.1046    81541.784     81531.52    77.227677    77.227677    77.227677    460594.68   -8979.5397    13516.464 
   34000    7366.5616    7426.2831    83527.986    81766.119    77.163086    77.163086    77.163086    459439.95   -8868.8829    13563.788 
   34100    7310.5368     7404.512    80383.954    81676.939    77.262609    77.262609    77.262609    461219.98   -9068.2326    13224.523 
   34200    7334.7129    7395.8774    80548.738    81573.541    77.193581    77.193581    77.193581    459984.88   -9057.5283    13195.592 
   34300    7319.5206    7385.0531    79802.803    81186.627    77.164934    77.164934    77.164934    459472.96    -9193.283    13052.288 
   34400    7280.0976    7367.9382    80706.079    81021.017    77.249071    77.249071    77.249071    460977.57    -9140.273    12934.078 
   34500    7282.2187     7352.787    79048.543     80779.27    77.064773    77.064773    77.064773    457686.09   -9298.2295    12877.234 
   34600     7283.222    7334.9736    82203.223     80889.73    77.180641    77.180641    77.180641     459753.6   -9184.7433    12910.064 
   34700    7259.6077    7319.1435    80392.502     81017.99    77.211845    77.211845    77.211845    460311.46   -9168.5176    12858.177 
   34800    7242.6165    7307.6078     81920.66    81007.627    77.193233    77.193233    77.193233    459978.66   -9022.0732    12957.651 
   34900    7250.3692    7292.9464    81195.685    80973.017    77.061854    77.061854    77.061854    457634.08   -9208.1718    12861.199 
   35000    7231.5142    7279.4416    79114.712     80531.69    77.107044    77.107044    77.107044    458439.64   -9221.1739    12774.608 
   35100    7200.7566    7268.4636    81277.341    80621.029    77.156877    77.156877    77.156877    459329.06    -9214.754    12750.557 
   35200    7192.4604    7254.2383    80216.284    80587.783     77.09426     77.09426     77.09426    458211.66   -9231.8927    12668.742 
   35300    7241.6086    7246.4471     78315.71    80439.074    77.176233    77.176233    77.176233    459674.84   -9148.9779    12816.882 
   35400     7216.924    7240.1298    79069.615    80275.427    77.101745    77.101745    77.101745    458345.13   -9370.6655    12565.411 
   35500    7213.9803     7233.306    80540.705    80424.644    77.014935    77.014935    77.014935     456798.7   -9359.1571    12557.946 
   35600     7168.049    7221.7887    80825.885     80286.91    77.052076    77.052076    77.052076    457459.89   -9381.0098    12595.909 
   35700    7125.4654    7208.3744    81034.603     80351.12    77.035839    77.035839    77.035839    457170.77   -9253.2084    12469.136 
   35800    7114.0173    7195.5145    82377.596    80396.814     76.91182     76.91182     76.91182    454966.33   -9314.2408    12303.667 
   35900    7158.9448    7186.3721    79710.966    80248.342     77.10679     77.10679     77.10679    458435.11   -9293.8211    12463.673 
   36000    7077.6637     7170.987    79322.356    80269.106    77.039092    77.039092    77.039092    457228.68   -9387.2833    12212.485 
   36100    7114.9088    7162.4022      80615.6    80202.932    76.974784    76.974784    76.974784    456084.63   -9455.1825    12145.419 
   36200    7094.6411    7152.6203     78417.47    80023.051    77.035618    77.035618    77.035618    457166.82   -9340.8946    12296.732 
   36300    7108.7494    7139.3344    81186.706     80310.15     77.09765     77.09765     77.09765     458272.1    -9448.141    12171.262 
   36400    7103.8183    7128.0238    77208.161    80124.005    76.924107    76.924107    76.924107    455184.42   -9494.6895    12206.169 
   36500    7078.4791    7114.4737    78531.689    79923.103     76.88693     76.88693     76.88693    454524.78   -9531.9589    11989.377 
   36600    7019.9655    7099.6653    83598.221    80200.337    76.915594    76.915594    76.915594    455033.31   -9404.1988    11951.169 
   36700    7071.1313    7094.2319    82169.976    80313.874    76.885156    76.885156    76.885156    454493.32   -9676.4098    11818.964 
   36800    7068.2822    7089.6584    79584.673    80034.582    76.944969    76.944969    76.944969    455554.87   -9638.2233    11842.739 
   36900    6997.6922    7073.5332    79924.008    80055.886    76.909986    76.909986    76.909986    454933.79   -9707.5065    11610.134 
   37000    7000.1252    7065.7793    79019.816    80025.632    76.848712    76.848712    76.848712    453847.32   -9718.9828    11673.055 
   37100    7021.4222    7056.4307    78606.888    79824.761    76.798444    76.798444    76.798444     452957.3   -9666.9851     11732.86 
   37200    7021.6092    7049.1275    77412.419    79724.256    76.786859    76.786859    76.786859    452752.35   -9701.0835    11688.321 
   37300    7037.1035    7041.9629    79186.697    79524.255    76.835491    76.835491    76.835491    453613.13   -9646.2636    11734.273 
   37400    6986.8957    7030.2706    80050.559    79808.495    76.736172    76.736172    76.736172    451856.35   -9599.1579    11641.525 
   37500    7007.8836    7023.2111    78796.611    79834.987    76.790466    76.790466    76.790466    452816.15   -9785.9701    11509.449 
   37600    6892.8082    7010.4953    79871.026    79462.267    76.666228    76.666228    76.666228    450621.89   -9529.9236    11488.017 
   37700    6908.2789    6994.2101    81370.285    79382.298    76.741022    76.741022    76.741022    451942.04   -9717.6042    11313.364 
   37800    6898.3916     6977.221    80101.547    79433.986    76.756646    76.756646    76.756646    452218.13   -9785.6955    11125.115 
   37900    6897.3712    6967.1889    78166.727    79258.258    76.710015    76.710015    76.710015    451394.43   -9698.2693    11368.356 
   38000    6884.1975    6955.5962    77758.107    79132.087    76.659245    76.659245    76.659245    450498.78   -9852.8145     11110.87 
   38100    6876.1577    6941.0697    78873.732    79158.771    76.696066    76.696066    76.696066    451148.23   -9799.3391    11088.337 
   38200    6821.7846    6921.0873    80063.665    79423.896    76.720134    76.720134    76.720134    451573.09   -9709.6444    11057.112 
   38300    6864.4566    6903.8226    78655.418    79370.768    76.637284    76.637284    76.637284    450111.71   -9830.8821    11034.915 
   38400    6843.7814    6889.5111    79320.706    79297.782    76.679002    76.679002    76.679002    450847.19   -9841.4446    11003.743 
   38500    6856.2625     6874.349    80103.139    79428.435    76.580229    76.580229    76.580229    449107.17   -9903.4691    10892.345 
   38600     6748.179    6859.8861    80456.079    79486.941    76.637129    76.637129    76.637129    450108.99   -9852.6569    10818.366 
   38700    6746.2277     6843.681    81214.312    79471.343    76.739733    76.739733    76.739733    451919.27   -9791.2533    10870.098 
   38800    6801.1532    6833.9571      77889.5    79250.139    76.645883    76.645883    76.645883    450263.24   -9987.2139    10727.155 
   38900    6785.6458    6822.7846    78415.873    79275.053    76.635107    76.635107    76.635107    450073.35    -9924.244    10694.115 
   39000    6818.5299    6816.2179    78342.859    79333.528    76.617444    76.617444    76.617444    449762.22    -9997.162    10758.027 
   39100    6766.8332    6805.2854    79201.616    79366.317    76.553773    76.553773    76.553773    448641.87   -10046.129    10600.185 
   39200    6762.4421    6799.3512    78504.465    79210.397    76.435884    76.435884    76.435884    446572.39   -9991.0746    10661.033 
[...]
  361600    300.48003    300.46043   -2104.1186   -2020.5302    104.69266    104.69266    104.69266    1147489.5   -24579.084   -23517.443 
  361700     302.0335     300.4369    -2061.808   -2034.8465    104.78217    104.78217    104.78217    1150435.3   -24578.847   -23516.943 
  361800    300.03327    300.27393   -1901.3558   -2034.3891    104.91347    104.91347    104.91347    1154765.5   -24573.842   -23517.375 
  361900    298.28118    299.90426   -2013.8217   -2040.0623    104.94322    104.94322    104.94322    1155748.2   -24573.851   -23523.537 
  362000    301.22321    300.09767   -2061.5378   -2035.9332    105.05669    105.05669    105.05669      1159501   -24577.414    -23511.28 
  362100    298.23461    299.83465   -2030.6206    -2035.484    105.22966    105.22966    105.22966    1165237.6   -24575.451   -23521.695 
  362200    300.66645    300.13396   -1954.9986   -2015.3571    105.31018    105.31018    105.31018    1167914.5   -24575.936   -23520.743 
  362300    299.20404    300.18523   -1982.2046   -2008.5131    105.43194    105.43194    105.43194    1171970.2   -24570.438   -23516.286 
  362400    298.92557    300.01614    -2083.336    -2023.461    105.46684    105.46684    105.46684    1173134.5   -24571.289   -23522.879 
  362500    300.18377    299.92656   -2053.0813   -2024.6883    105.53532    105.53532    105.53532    1175421.2   -24575.202   -23517.548 
  362600    298.30455    299.70901   -1935.1931   -2007.7957    105.57712    105.57712    105.57712    1176818.5   -24574.659   -23518.287 
  362700    301.61914    299.66758   -2076.9628   -2009.3112    105.69434    105.69434    105.69434    1180742.7   -24580.694   -23519.609 
  362800    300.22523    299.68678   -1967.6919   -2015.9448    105.79315    105.79315    105.79315    1184057.2   -24573.265   -23515.046 
  362900    299.37031    299.79569    -2037.701   -2018.3328    105.94321    105.94321    105.94321    1189102.7   -24566.887   -23509.372 
  363000    298.80228    299.55359   -1959.1359   -2008.0926    105.89088    105.89088    105.89088    1187341.7   -24571.788   -23515.853 
  363100    299.07411    299.63754   -1928.1436   -1997.8449    105.90705    105.90705    105.90705    1187885.7   -24570.238   -23512.303 
  363200    300.56005     299.6269   -2134.5427   -2015.7993    105.92441    105.92441    105.92441    1188469.8   -24568.274   -23512.956 
  363300    299.54251    299.66075   -2131.1175   -2030.6906    105.91433    105.91433    105.91433    1188130.4   -24574.703   -23520.636 
  363400     298.6212    299.63031   -2016.7899    -2024.036    106.05448    106.05448    106.05448    1192853.4   -24571.283   -23517.689 
  363500    299.40256    299.55219   -1989.5874   -2017.6866    106.02854    106.02854    106.02854    1191978.3   -24572.511   -23515.677 
  363600     297.3947    299.46121   -1984.6811   -2022.6354    106.03809    106.03809    106.03809    1192300.5   -24573.298   -23522.802 
  363700    299.23832    299.22313   -2016.5088     -2016.59     106.0685     106.0685     106.0685    1193326.6   -24567.749   -23510.399 
  363800    299.63874    299.16448   -2064.5838   -2026.2792    106.08368    106.08368    106.08368    1193838.8   -24574.542   -23518.609 
  363900    300.44212    299.27166   -2066.0062   -2029.1097    106.26947    106.26947    106.26947    1200122.4    -24568.25   -23507.879 
  364000    297.24781    299.11621   -2087.7334   -2041.9694    106.30541    106.30541    106.30541    1201340.4   -24566.425    -23513.01 
  364100    300.19264    299.22806   -1962.2679   -2045.3819    106.30001    106.30001    106.30001    1201157.4   -24582.515   -23521.559 
  364200     300.8809    299.26015   -1992.2242     -2031.15    106.36041    106.36041    106.36041    1203206.2   -24578.563     -23520.9 
  364300    297.81942    299.08784   -2016.4645   -2019.6847     106.4911     106.4911     106.4911    1207646.7   -24573.101   -23519.651 
  364400    298.13627    299.03935   -2037.3435   -2021.7401    106.62567    106.62567    106.62567    1212230.7   -24575.405   -23518.008 
  364500    300.85714    299.18481   -2024.9358   -2025.2749    106.70609    106.70609    106.70609    1214975.9   -24567.894   -23507.183 
  364600    300.94554    299.53989   -1903.8831   -2017.1951    106.81886    106.81886    106.81886      1218832   -24569.322   -23508.976 
  364700    299.70215    299.58627   -1992.0262   -2014.7468    106.85619    106.85619    106.85619    1220110.3   -24574.955   -23513.125 
  364800    299.39384    299.56178   -2007.2811   -2009.0166    106.88229    106.88229    106.88229    1221004.4   -24565.809   -23510.342 
  364900    301.68031     299.6856   -2020.4298   -2004.4589    106.94443    106.94443    106.94443    1223135.3   -24567.348   -23505.417 
  365000    302.19302    300.18012   -1977.4638    -1993.432    107.06002    107.06002    107.06002    1227105.5   -24572.871   -23508.183 
  365100    300.37886    300.19875   -2123.5216   -2009.5574    107.02602    107.02602    107.02602    1225936.9   -24564.726   -23509.399 
  365200    300.20029    300.13068   -2084.9361   -2018.8285    106.94771    106.94771    106.94771    1223247.8   -24573.073   -23518.097 
  365300    301.01072    300.44981   -1920.0139   -2009.1835    106.99197    106.99197    106.99197    1224767.2   -24572.147   -23511.671 
  365400    297.72634    300.40882   -2050.9499   -2010.5441    107.06345    107.06345    107.06345    1227223.7   -24573.837   -23526.226 
  365500    300.31119    300.35423   -1849.7954   -1993.0301    107.14807    107.14807    107.14807    1230135.9   -24574.183   -23516.375 
  365600    300.73148    300.33282   -2116.3478   -2014.2766    107.24878    107.24878    107.24878    1233607.6   -24571.413   -23515.519 
  365700    302.07504    300.57011   -1991.2745   -2014.2014    107.25331    107.25331    107.25331    1233763.9   -24573.121   -23519.531 
  365800    298.86873     300.5176   -1978.7836   -2011.3517    107.39419    107.39419    107.39419    1238632.2   -24570.019   -23516.602 
  365900    299.14266    300.26383   -1873.4118   -1996.6499    107.45029    107.45029    107.45029    1240574.4   -24569.676   -23520.256 
  366000     300.8701    300.13154   -2063.7071   -2005.2742    107.49919    107.49919    107.49919    1242268.7   -24576.586   -23512.635 
  366100    300.58693    300.15235   -1844.6675   -1977.3888    107.61339    107.61339    107.61339    1246232.1   -24568.535    -23510.62 
  366200    299.69517    300.10183   -1971.0094   -1965.9961    107.69643    107.69643    107.69643    1249119.2   -24575.339   -23520.295 
  366300    299.56551    299.95731    -1893.432   -1963.3379    107.74018    107.74018    107.74018    1250642.1   -24571.442   -23519.299 
  366400    298.86952    300.07163   -1936.0033   -1951.8432    107.83176    107.83176    107.83176    1253834.2   -24569.575   -23518.851 
  366500    301.40746    300.18126   -2007.9906   -1967.6628    107.88019    107.88019    107.88019    1255524.2   -24574.698   -23514.008 
  366600    301.73317    300.28143   -2098.9228   -1965.9203    107.96157    107.96157    107.96157    1258367.7   -24578.461   -23522.639 
  366700    301.25607    300.19953   -2150.8338   -1981.8762    108.13187    108.13187    108.13187      1264332    -24568.08   -23512.398 
  366800     299.3919    300.25185   -2062.5028   -1990.2481    108.24305    108.24305    108.24305      1268236   -24568.971   -23512.853 
  366900    302.84167    300.62175   -1945.7839   -1997.4853    108.30007    108.30007    108.30007    1270241.3   -24574.163   -23511.387 
  367000    299.34182    300.46892   -2025.8198   -1993.6966    108.40867    108.40867    108.40867    1274066.4   -24570.718   -23514.692 
  367100    301.33543    300.54377   -2065.1796   -2015.7478    108.45881    108.45881    108.45881    1275834.9     -24570.9   -23506.551 
  367200    303.62489    300.93675   -2052.9638   -2023.9432    108.41289    108.41289    108.41289      1274215   -24567.388   -23506.388 
  367300    299.83405     300.9636   -2052.7632   -2039.8764    108.43265    108.43265    108.43265      1274912   -24571.318   -23519.432 
  367400     300.8518    301.16183   -1974.2716   -2043.7032    108.56938    108.56938    108.56938    1279741.1   -24572.046   -23516.864 
  367500    299.71335    300.99241   -2014.8696   -2044.3911    108.62841    108.62841    108.62841    1281829.6   -24576.166    -23521.05 
  367600    300.21493    300.84059   -2014.0765   -2035.9064    108.72895    108.72895    108.72895    1285391.8   -24571.545   -23516.862 
  367700    300.50869    300.76585   -2106.4213   -2031.4652    108.84929    108.84929    108.84929    1289664.8   -24569.647   -23509.416 
  367800    298.25253    300.65192   -1969.9696   -2022.2119    108.87957    108.87957    108.87957    1290741.1   -24569.798    -23521.25 
  367900    298.46928    300.21468   -2142.9222   -2041.9257    108.90346    108.90346    108.90346    1291591.1   -24572.381   -23521.182 
  368000    301.82222    300.46272   -2011.9665   -2040.5404    108.95823    108.95823    108.95823    1293540.8   -24572.945   -23513.182 
  368100    299.78119    300.30729   -1970.2803   -2031.0505    109.04943    109.04943    109.04943    1296791.8   -24568.085   -23509.614 
  368200     299.8846    299.93326   -2065.3251   -2032.2866    109.22701    109.22701    109.22701    1303137.3   -24564.732   -23513.507 
  368300    300.86084    300.03594   -2103.9674    -2037.407    109.33188    109.33188    109.33188    1306894.3   -24573.197   -23517.993 
  368400    300.61023    300.01179   -2023.1655   -2042.2964    109.35863    109.35863    109.35863    1307853.6   -24575.087   -23527.079 
  368500     302.1908    300.25953   -2003.9196   -2041.2014    109.52088    109.52088    109.52088    1313683.5   -24578.766   -23520.127 
  368600    299.54478    300.19252   -2032.9222    -2043.086    109.63154    109.63154    109.63154    1317669.6   -24567.998   -23513.756 
  368700    299.94608    300.13626   -1972.7224   -2029.7161    109.68552    109.68552    109.68552    1319616.9   -24574.592   -23520.377 
  368800     297.5096    300.06196   -2040.4263   -2036.7618    109.77914    109.77914    109.77914    1322998.9   -24563.448   -23515.414 
  368900    302.46401    300.46144    -2004.243   -2022.8938    109.89212    109.89212    109.89212      1327088   -24574.705   -23514.014 
  369000    299.94757    300.27397   -1999.9897   -2021.6962    109.90462    109.90462    109.90462    1327540.8   -24573.918   -23520.808 
  369100    297.58031    300.05388   -1921.2871   -2016.7969    109.95863    109.95863    109.95863    1329498.7   -24570.485   -23525.538 
  369200     299.7201    300.03743   -2032.4259   -2013.5069    110.12641    110.12641    110.12641    1335593.8   -24573.522    -23519.72 
  369300    299.18721    299.87007   -1894.1944   -1992.5296    110.32726    110.32726    110.32726    1342915.1   -24569.977   -23515.344 
  369400    298.66954      299.676   -1975.4127   -1987.7543    110.53453    110.53453    110.53453    1350497.9    -24569.82   -23516.569 
  369500    298.14356    299.27128   -2091.3286   -1996.4952    110.71418    110.71418    110.71418    1357093.2   -24566.602   -23513.027 
  369600     300.2362    299.34042   -2182.3392   -2011.4369    110.84108    110.84108    110.84108    1361765.4   -24568.397   -23511.427 
  369700    299.92386     299.3382    -1997.431   -2013.9078    110.94665    110.94665    110.94665    1365659.8   -24561.473   -23503.655 
  369800     301.5367    299.74091   -2001.6275   -2010.0279    111.13003    111.13003    111.13003      1372443   -24559.619    -23491.94 
  369900    300.09352    299.50386   -1855.9912   -1995.2027    111.16093    111.16093    111.16093      1373588   -24564.769   -23503.406 
  370000    303.36305     299.8454   -1995.6536   -1994.7691    111.25988    111.25988    111.25988    1377259.4   -24563.913   -23494.539 
  370100    298.82031     299.9694   -1978.7635   -2000.5168    111.32196    111.32196    111.32196    1379566.2   -24558.682   -23498.563 
  370200     302.3672    300.23411   -2005.7377   -1997.8479    111.38025    111.38025    111.38025    1381734.6   -24558.815   -23489.884 
  370300    298.18183    300.13358   -2075.8165   -2016.0101    111.31243    111.31243    111.31243    1379211.8    -24555.08   -23502.574 
  370400    300.11803    300.27843   -2136.8647   -2032.1553    111.37038    111.37038    111.37038      1381367   -24563.323   -23501.275 
  370500    298.96767    300.36084   -2034.1104   -2026.4335    111.39507    111.39507    111.39507    1382286.1   -24559.795   -23503.381 
  370600    300.24221    300.36144   -1950.1144    -2003.211    111.46135    111.46135    111.46135    1384754.8   -24555.458   -23494.083 
  370700     300.5711    300.42616   -2013.0101    -2004.769    111.54385    111.54385    111.54385    1387832.1   -24552.802   -23488.674 
  370800    299.32092    300.20458    -1973.523   -2001.9585    111.57819    111.57819    111.57819      1389114   -24558.402   -23495.666 
  370900     302.8945    300.48468   -2126.4858    -2029.008    111.53669    111.53669    111.53669    1387564.7   -24554.892   -23489.149 
  371000    297.30259    299.87863   -2118.8223   -2041.3248      111.475      111.475      111.475    1385263.7   -24558.901   -23502.299 
  371100    299.35842    299.93245   -1959.4782   -2039.3963    111.49335    111.49335    111.49335    1385947.8   -24556.178   -23496.081 
  371200      298.172    299.51293    -1901.523   -2028.9748    111.55286    111.55286    111.55286    1388168.3   -24556.823    -23499.32 
  371300    299.59427    299.65417   -2063.3609   -2027.7293    111.60621    111.60621    111.60621      1390161   -24553.814   -23497.484 
  371400     297.9607    299.43844   -1917.2796   -2005.7708    111.64257    111.64257    111.64257    1391519.9   -24557.844   -23499.502 
  371500    300.82618    299.62429   -1982.0861   -2000.5683    111.73707    111.73707    111.73707    1395056.6   -24558.727   -23496.632 
  371600    298.81757    299.48182    -2051.485   -2010.7054     111.8233     111.8233     111.8233      1398289   -24557.788   -23498.604 
  371700     301.5283    299.57754   -1953.7844   -2004.7828    111.92816    111.92816    111.92816    1402226.2   -24554.709   -23485.394 
  371800    300.24088    299.66954   -2096.1112   -2017.0416    112.07965    112.07965    112.07965    1407927.7   -24547.978   -23481.167 
  371900    300.57008     299.4371   -2152.5006   -2019.6431    112.16515    112.16515    112.16515    1411152.1   -24548.787    -23480.36 
  372000    299.79926    299.68677   -2004.0856   -2008.1695    112.18935    112.18935    112.18935    1412065.8   -24549.548   -23481.503 
  372100    299.48833    299.69976   -1827.1873   -1994.9404    112.16605    112.16605    112.16605    1411186.2   -24548.702   -23491.451 
  372200     299.9523    299.87779   -1922.8422   -1997.0723     112.1665     112.1665     112.1665    1411203.1   -24555.763   -23496.332 
  372300    299.30107    299.84847   -2068.7115   -1997.6073    112.34306    112.34306    112.34306    1417877.6   -24558.387   -23496.147 
  372400    299.48738    300.00113   -1930.8024   -1998.9596    112.47179    112.47179    112.47179    1422757.4   -24555.859   -23491.662 
  372500    299.75896    299.89441   -1981.5071   -1998.9017    112.50627    112.50627    112.50627    1424066.4   -24560.285   -23497.329 
  372600    302.31579    300.24423   -2007.5537   -1994.5086    112.67014    112.67014    112.67014    1430297.8   -24559.703   -23487.619 
  372700     300.9972    300.19112   -1962.8533   -1995.4155    112.74503    112.74503    112.74503    1433151.8   -24561.084   -23495.234 
  372800    299.51405    300.11844   -1985.0567     -1984.31    112.96929    112.96929    112.96929    1441720.9   -24555.956   -23491.896 
  372900    299.29471     299.9909   -1963.7207    -1965.432    113.07562    113.07562    113.07562    1445795.7   -24556.474    -23491.91 
  373000    300.53772    300.06475   -2076.2965   -1972.6531    113.25421    113.25421    113.25421    1452657.1   -24555.867   -23490.666 
  373100       299.77    300.09292   -2018.8964   -1991.8241    113.52543    113.52543    113.52543    1463118.5   -24550.391    -23484.68 
  373200    300.70274    300.16796   -1932.8463   -1992.8245     113.6639     113.6639     113.6639    1468478.6   -24550.252   -23486.555 
  373300    298.18852    300.05671   -1971.4672      -1983.1     113.6199     113.6199     113.6199    1466774.1   -24551.105   -23494.964 
  373400    300.71762    300.17973   -1940.9222    -1984.112    113.74357    113.74357    113.74357    1471568.6   -24557.852   -23493.759 
  373500     300.6208    300.26591   -2070.7269    -1993.034    113.81917    113.81917    113.81917    1474504.8   -24549.186    -23484.81 
  373600    299.70024    300.00436   -1928.0266   -1985.0813     113.9456     113.9456     113.9456    1479424.1   -24549.824    -23487.85 
  373700    300.10172    299.91481   -1980.6533   -1986.8613    114.13052    114.13052    114.13052    1486638.7   -24547.892   -23477.646 
  373800    300.23637    299.98704   -2025.6069   -1990.9163    114.18256    114.18256    114.18256    1488672.9   -24544.596   -23476.293 
  373900     298.1063     299.8682   -2026.0584   -1997.1501    114.17619    114.17619    114.17619    1488424.1   -24548.352   -23488.371 
  374000    299.60883    299.77531   -1990.2041   -1988.5408     114.3893     114.3893     114.3893    1496773.8   -24551.497   -23492.563 
  374100    300.72292    299.87061   -2021.4116   -1988.7923     114.6799     114.6799     114.6799    1508210.2   -24550.927   -23486.559 
  374200    299.23487    299.72382    -1982.762   -1993.7839    115.02043    115.02043    115.02043    1521685.6   -24542.951   -23476.913 
  374300    301.12393    300.01736    -1987.328     -1995.37    115.18856    115.18856    115.18856    1528368.6   -24546.158   -23479.675 
  374400    298.85622    299.83122   -1964.7512   -1997.7529    115.46761    115.46761    115.46761    1539502.8    -24543.89   -23484.794 
  374500    299.69221    299.73836   -1985.2677    -1989.207    115.77145    115.77145    115.77145    1551688.2   -24541.817   -23478.105 
  374600     299.5734    299.72568   -2014.2962   -1997.8339     116.0809     116.0809     116.0809    1564164.2   -24545.119    -23480.83 
  374700    300.06613    299.72212   -2068.4872   -2006.6173    116.37966    116.37966    116.37966    1576272.2   -24540.733   -23474.911 
  374800    299.96484    299.69496   -2014.2079   -2005.4774    116.63791    116.63791    116.63791    1586789.1   -24538.784   -23470.385 
  374900     299.2028    299.80461   -1997.7913   -2002.6507    116.85268    116.85268    116.85268    1595570.7    -24537.84   -23473.039 
  375000    301.24084    299.96782   -2010.6154   -2004.6918    117.03443    117.03443    117.03443    1603027.6   -24542.269   -23472.577 
  375100     300.9319    299.98871   -2055.9258   -2008.1433    117.25373    117.25373    117.25373    1612055.7   -24540.905    -23468.96 
  375200    299.93941    300.05917   -2118.8138   -2021.7485    117.44414    117.44414    117.44414    1619921.8   -24537.436   -23472.073 
  375300    300.99167    300.04594   -2095.6579   -2032.5814    117.68521    117.68521    117.68521    1629917.5   -24536.343    -23467.96 
  375400    300.42749    300.20307   -2010.5075   -2037.1571    118.11818    118.11818    118.11818    1647973.7   -24530.666   -23462.019 
  375500    300.38854     300.2727   -1949.8174    -2033.612    118.51446    118.51446    118.51446      1664616   -24535.901   -23469.745 
  375600    299.71432    300.28679   -2048.7726   -2037.0597    118.96785    118.96785    118.96785    1683793.4   -24531.377   -23469.254 
  375700    300.53661    300.33384   -1957.4333   -2025.9543    119.42607    119.42607    119.42607    1703324.6   -24537.295   -23467.391 
  375800   