
#########################################################################
dimension 3
atom_style full

# bonded potentials
bond_style harmonic
angle_style harmonic
dihedral_style hybrid opls class2

boundary p p p
units metal
neighbor 2 bin
neigh_modify check yes

timestep 0.001

read_data data.EtOCSMethyl_2000_$a
read_data data.EtOCSMethyl_2000_2.3
  1 = max bonds/atom
  1 = max angles/atom
  1 = max dihedrals/atom
  orthogonal box = (-4 -4 -4) to (137 137 137)
  3 by 4 by 4 processor grid
  17600 atoms
  8000 bonds
  6000 angles
  4000 dihedrals
  2 = max # of 1-2 neighbors
  2 = max # of 1-3 neighbors
  2 = max # of 1-4 neighbors
  4 = max # of special neighbors

#########################################################################
# number of EtOCSMethyl precursors (referenced by moleculeID)
group precursors molecule <> $p $q
group precursors molecule <> 1 $q
group precursors molecule <> 1 2000
10000 atoms in group precursors

# number of free O atoms (referenced by atomID)
group freeO id <> $r $s
group freeO id <> 10001 $s
group freeO id <> 10001 17600
7600 atoms in group freeO

# number of porogen molecules (referenced by moleculeID)
group porogen molecule <> $t $v
group porogen molecule <> 2001 $v
group porogen molecule <> 2001 2000
0 atoms in group porogen

group active union precursors freeO porogen
17600 atoms in group active
group activematrix union precursors freeO
17600 atoms in group activematrix
group inactive subtract all active
0 atoms in group inactive
delete_atoms group inactive
Deleted 0 atoms, new total = 17600

#########################################################################
#soft potential to push the atoms apart
pair_style soft 3
pair_coeff	* * 0 500 3

thermo_style custom step temp tave press pave lx ly lz vol epair etotal

fix 1		active nvt 6000 6000 0.0100 drag 2.00
thermo		1000
run		20000
Memory usage per processor = 2.40387 Mbytes
Step Temp T_ave Press P_ave Lx Ly Lz Volume E_pair TotEng 
       0            0            0   -2.7814103   -2.7814103          141          141          141      2803221            0    11.848978 
    1000    5974.2564    2987.1282    4759.6999    2378.4593          141          141          141      2803221    187.24792     16008.72 
    2000    6000.6984    3991.6516    4260.0593    3005.6593          141          141          141      2803221    99.371615    17017.924 
    3000    6021.8944    4499.2123    4140.3027    3289.3201          141          141          141      2803221    84.976854    17476.061 
    4000     5986.378    4796.6454    4124.3899    3456.3341          141          141          141      2803221     77.76673     17638.73 
    5000    5996.8405    4996.6779    3881.2827    3527.1589          141          141          141      2803221    60.829192    17679.783 
    6000    6005.2425    5140.7586     4096.612    3608.5093          141          141          141      2803221    61.584706    17678.594 
    7000    6024.8052    5251.2644    3792.0828     3631.456          141          141          141      2803221    48.310856    17716.382 
    8000    5992.7331    5333.6498    4062.6769    3679.3694          141          141          141      2803221     53.75902    17684.278 
    9000    5984.7138    5398.7562     3779.658    3689.3983          141          141          141      2803221    51.083454    17706.867 
   10000    5992.0018    5997.9564    3796.1049    4069.2869          141          141          141      2803221    45.309976    17729.929 
   11000    6003.5393    6000.8847     4324.861     4025.803          141          141          141      2803221    50.784196    17731.755 
   12000    5996.3035    6000.4452    3933.3937    3993.1365          141          141          141      2803221    45.886284    17684.607 
   13000    6003.4145    5998.5972    3829.9996    3962.1062          141          141          141      2803221    35.930715     17716.29 
   14000    6001.3563    6000.0951    3822.5642    3931.9236          141          141          141      2803221    40.286533     17752.81 
   15000    5995.4561    5999.9566    3998.7486    3943.6702          141          141          141      2803221    47.930472    17742.948 
   16000    6009.5895    6000.3913    4120.8258    3946.0916          141          141          141      2803221    45.609371    17738.624 
   17000     5991.365    5997.0473    4018.2927    3968.7125          141          141          141      2803221    40.574268    17714.761 
   18000    5994.6838    5997.2424    3639.2213     3926.367          141          141          141      2803221    31.295021    17729.662 
   19000    5995.7514    5998.3461     3794.567    3927.8579          141          141          141      2803221    31.465256     17712.31 
   20000    6009.3669    6000.0826    4291.3859     3977.386          141          141          141      2803221    41.342743    17712.688 
Loop time of 41.3103 on 48 procs for 20000 steps with 17600 atoms

Pair  time (%) = 0.338309 (0.818946)
Bond  time (%) = 2.01354 (4.87418)
Neigh time (%) = 0.597104 (1.44541)
Comm  time (%) = 29.9098 (72.4029)
Outpt time (%) = 0.02638 (0.0638581)
Other time (%) = 8.42508 (20.3947)

Nlocal:    366.667 ave 442 max 308 min
Histogram: 4 4 7 8 7 5 7 2 2 2
Nghost:    359.125 ave 412 max 320 min
Histogram: 6 2 7 7 8 8 4 2 2 2
Neighs:    382.646 ave 507 max 285 min
Histogram: 4 4 9 6 8 5 4 1 3 4

Total # of neighbors = 18367
Ave neighs/atom = 1.04358
Ave special neighs/atom = 2.04545
Neighbor list builds = 1730
Dangerous builds = 271

thermo		1
minimize		1e-4 10000 10000
Memory usage per processor = 3.10896 Mbytes
Step Temp T_ave Press P_ave Lx Ly Lz Volume E_pair TotEng 
   20000    6009.3669    6000.0826    4291.3859     3977.386          141          141          141      2803221    41.342743    17712.688 
   20001    6009.3669    6000.6654    3721.0683    3917.0067          141          141          141      2803221   0.24726093    16923.659 
   20002    6009.3669    6001.9717    4720.5972    3995.7271          141          141          141      2803221    1.9351725    15709.592 
   20003    6009.3669     6002.567    4885.1393     4101.241          141          141          141      2803221   0.12762214    15463.786 
   20004    6009.3669     6003.368    5267.2241     4245.707          141          141          141      2803221    1.9369526    15153.687 
   20005    6009.3669    6004.7591    5218.0219    4367.6343          141          141          141      2803221   0.01847318    15090.297 
   20006    6009.3669    6004.7369    5402.8414    4495.8359          141          141          141      2803221    3.3898536    14804.059 
   20007    6009.3669    6006.5371    5279.2075    4621.9274          141          141          141      2803221 0.0039416908    14767.935 
   20008    6009.3669    6008.0054    5540.5678     4812.062          141          141          141      2803221    8.8380628     14561.55 
   20009    6009.3669    6009.3669    5329.5982    4965.5652          141          141          141      2803221  0.029193641    14520.731 
   20010    6009.3669    6009.3669     5389.577    5075.3843          141          141          141      2803221     0.505249    14452.458 
   20011    6009.3669    6009.3669    5351.1581    5238.3933          141          141          141      2803221  0.026539611    14426.793 
   20012    6009.3669    6009.3669    5530.8323    5319.4168          141          141          141      2803221    4.0580408    14325.846 
   20013    6009.3669    6009.3669    5344.3447    5365.3373          141          141          141      2803221   0.12650645    14279.123 
   20014    6009.3669    6009.3669    5335.5536    5372.1703          141          141          141      2803221  0.009349385    14252.386 
   20015    6009.3669    6009.3669    5419.0513    5392.2732          141          141          141      2803221    1.7201894    14185.274 
   20016    6009.3669    6009.3669    5327.3099      5384.72          141          141          141      2803221 0.0031923266    14171.688 
   20017    6009.3669    6009.3669    5437.4361    5400.5429          141          141          141      2803221      2.14015    14130.771 
   20018    6009.3669    6009.3669    5310.8129    5377.5674          141          141          141      2803221   0.13383704    14111.629 
   20019    6009.3669    6009.3669    5305.1326    5375.1209          141          141          141      2803221  0.073784733    14089.893 
   20020    6009.3669    6009.3669    5300.0311    5366.1663          141          141          141      2803221  0.014257302    14081.398 
   20021    6009.3669    6009.3669    5361.2791    5367.1784          141          141          141      2803221    1.1272355    14058.748 
   20022    6009.3669    6009.3669    5296.1953    5343.7147          141          141          141      2803221  0.012291142    14050.265 
   20023    6009.3669    6009.3669     5296.705    5338.9507          141          141          141      2803221  0.051405633    14037.649 
   20024    6009.3669    6009.3669    5286.7028    5334.0656          141          141          141      2803221   0.01198332    14030.679 
   20025    6009.3669    6009.3669    5316.9487    5323.8553          141          141          141      2803221   0.26296296    14013.366 
   20026    6009.3669    6009.3669    5277.5839    5318.8827          141          141          141      2803221   0.01937301    14003.903 
   20027    6009.3669    6009.3669    5276.0993    5302.7491          141          141          141      2803221  0.018779526    13994.598 
   20028    6009.3669    6009.3669    5271.2038    5298.7882          141          141          141      2803221  0.015455147    13986.631 
   20029    6009.3669    6009.3669    5271.3741    5295.4123          141          141          141      2803221  0.032933382    13978.781 
   20030    6009.3669    6009.3669    5264.2748    5291.8367          141          141          141      2803221  0.017483857     13974.05 
   20031    6009.3669    6009.3669     5265.832     5282.292          141          141          141      2803221  0.040563473    13967.213 
   20032    6009.3669    6009.3669    5258.0965    5278.4821          141          141          141      2803221 0.0014520226    13963.817 
   20033    6009.3669    6009.3669    5595.7667    5308.3883          141          141          141      2803221    10.480272    13937.282 
   20034    6009.3669    6009.3669    5694.1614    5349.1341          141          141          141      2803221    12.630568    13911.317 
   20035    6009.3669    6009.3669    5137.3909    5331.1783          141          141          141      2803221   0.96120395    13883.986 
   20036    6009.3669    6009.3669    5070.1832    5310.4383          141          141          141      2803221 0.00039170887    13880.332 
   20037    6009.3669    6009.3669    5199.0124    5302.7296          141          141          141      2803221    0.3461472    13874.995 
   20038    6009.3669    6009.3669    5270.5699    5302.6662          141          141          141      2803221  0.084236302    13873.214 
   20039    6009.3669    6009.3669    5291.2088    5304.6497          141          141          141      2803221  0.054143169     13870.34 
   20040    6009.3669    6009.3669    5240.9663    5302.3188          141          141          141      2803221  0.027777268    13866.178 
   20041    6009.3669    6009.3669    5210.4603    5296.7816          141          141          141      2803221   0.10679237    13861.671 
   20042    6009.3669    6009.3669    5192.3186    5290.2039          141          141          141      2803221  0.020526308    13858.931 
   20043    6009.3669    6009.3669    5261.1309    5256.7403          141          141          141      2803221   0.11531355     13853.32 
   20044    6009.3669    6009.3669    5253.1085     5212.635          141          141          141      2803221  0.014294814    13850.322 
   20045    6009.3669    6009.3669    5210.8903    5219.9849          141          141          141      2803221   0.61329595    13844.041 
   20046    6009.3669    6009.3669    5143.1179    5227.2784          141          141          141      2803221   0.71400402    13841.827 
   20047    6009.3669    6009.3669    5174.9476    5224.8719          141          141          141      2803221    2.5335873    13835.313 
   20048    6009.3669    6009.3669    5075.3492    5205.3498          141          141          141      2803221    1.0592628    13825.918 
   20049    6009.3669    6009.3669    5042.3753    5180.4665          141          141          141      2803221  0.091882401    13820.042 
   20050    6009.3669    6009.3669    5217.9385    5178.1637          141          141          141      2803221  0.012308724    13813.821 
   20051    6009.3669    6009.3669    5293.0376    5186.4214          141          141          141      2803221    0.1564668    13811.282 
   20052    6009.3669    6009.3669    5284.4193    5195.6315          141          141          141      2803221  0.011229725    13810.249 
   20053    6009.3669    6009.3669    5214.5299    5190.9714          141          141          141      2803221  0.050991546    13807.374 
   20054    6009.3669    6009.3669     5192.874     5184.948          141          141          141      2803221 0.00099423583    13806.833 
   20055    6009.3669    6009.3669    5213.5504     5185.214          141          141          141      2803221 0.0079633265     13805.39 
   20056    6009.3669    6009.3669    5327.3687     5203.639          141          141          141      2803221    1.0571631    13802.804 
   20057    6009.3669    6009.3669    5382.0362    5224.3479          141          141          141      2803221    1.2155135    13800.135 
   20058    6009.3669    6009.3669    5381.2841    5254.9414          141          141          141      2803221    1.2522761     13796.61 
   20059    6009.3669    6009.3669    5333.6545    5284.0693          141          141          141      2803221   0.91674549    13792.532 
   20060    6009.3669    6009.3669     5284.963    5290.7718          141          141          141      2803221   0.74023621    13789.119 
   20061    6009.3669    6009.3669       5233.6     5284.828          141          141          141      2803221    0.3711699    13787.097 
   20062    6009.3669    6009.3669    5176.9432    5274.0804          141          141          141      2803221  0.073969338    13785.134 
   20063    6009.3669    6009.3669     5172.506     5269.878          141          141          141      2803221 3.7121197e-05    13784.581 
   20064    6009.3669    6009.3669    5213.6328    5271.9539          141          141          141      2803221  0.010816526    13783.399 
   20065    6009.3669    6009.3669     5224.692    5273.0681          141          141          141      2803221 0.0026969093    13782.673 
   20066    6009.3669    6009.3669    5207.4085     5261.072          141          141          141      2803221  0.042954268    13781.846 
   20067    6009.3669    6009.3669    5189.0592    5241.7743          141          141          141      2803221  0.018949399    13781.518 
   20068    6009.3669    6009.3669    5213.0275    5224.9487          141          141          141      2803221   0.23447577    13779.716 
   20069    6009.3669    6009.3669    5204.5873     5212.042          141          141          141      2803221   0.10433876    13779.104 
   20070    6009.3669    6009.3669    5232.2409    5206.7697          141          141          141      2803221   0.19246995    13778.234 
   20071    6009.3669    6009.3669    5239.5106    5207.3608          141          141          141      2803221   0.21529182    13777.666 
   20072    6009.3669    6009.3669    5247.0918    5214.3757          141          141          141      2803221   0.14124795      13776.9 
   20073    6009.3669    6009.3669    5245.1954    5221.6446          141          141          141      2803221   0.15565041    13776.332 
   20074    6009.3669    6009.3669    5234.4414    5223.7255          141          141          141      2803221   0.21181547    13775.278 
   20075    6009.3669    6009.3669    5212.9369      5222.55          141          141          141      2803221  0.068789468     13774.39 
   20076    6009.3669    6009.3669    5213.8811    5223.1972          141          141          141      2803221   0.15798886    13773.547 
   20077    6009.3669    6009.3669    5205.1572     5224.807          141          141          141      2803221  0.055833414    13773.132 
   20078    6009.3669    6009.3669    5198.4123    5223.3455          141          141          141      2803221 0.00065304524    13772.894 
   20079    6009.3669    6009.3669     5209.886    5223.8754          141          141          141      2803221 0.00061536345    13772.323 
   20080    6009.3669    6009.3669    5244.9665    5225.1479          141          141          141      2803221   0.19015519    13770.926 
   20081    6009.3669    6009.3669    5226.8568    5223.8825          141          141          141      2803221  0.067291999    13770.502 
   20082    6009.3669    6009.3669    5229.4695    5222.1203          141          141          141      2803221   0.08664503    13769.689 
   20083    6009.3669    6009.3669    5222.6896    5219.8697          141          141          141      2803221   0.13019708    13769.246 
   20084    6009.3669    6009.3669    5220.2366    5218.4493          141          141          141      2803221   0.11714249    13768.804 
   20085    6009.3669    6009.3669    5222.9762    5219.4532          141          141          141      2803221   0.16950758    13768.265 
   20086    6009.3669    6009.3669    5205.8814    5218.6532          141          141          141      2803221 0.0045389094    13767.539 
   20087    6009.3669    6009.3669    5214.8913    5219.6266          141          141          141      2803221  0.020502811     13766.76 
   20088    6009.3669    6009.3669    5222.1581    5222.0012          141          141          141      2803221  0.031199732    13766.238 
   20089    6009.3669    6009.3669    5218.8586    5222.8985          141          141          141      2803221  0.016040818    13765.646 
   20090    6009.3669    6009.3669    5210.9196    5219.4938          141          141          141      2803221  0.027163751    13765.321 
   20091    6009.3669    6009.3669    5204.6648    5217.2746          141          141          141      2803221   0.02286498    13765.077 
   20092    6009.3669    6009.3669    5223.3307    5216.6607          141          141          141      2803221   0.17762616    13764.456 
   20093    6009.3669    6009.3669    5216.8771    5216.0794          141          141          141      2803221   0.13664858    13764.085 
   20094    6009.3669    6009.3669    5216.4255    5215.6983          141          141          141      2803221   0.08695324    13763.793 
   20095    6009.3669    6009.3669    5223.5012    5215.7508          141          141          141      2803221   0.11567781    13763.307 
   20096    6009.3669    6009.3669    5224.6431     5217.627          141          141          141      2803221   0.06588643    13763.029 
   20097    6009.3669    6009.3669    5222.2958    5218.3674          141          141          141      2803221  0.067340718    13762.766 
   20098    6009.3669    6009.3669    5219.9903    5218.1507          141          141          141      2803221  0.084706785    13762.281 
   20099    6009.3669    6009.3669    5208.2477    5217.0896          141          141          141      2803221  0.056807746    13761.849 
   20100    6009.3669    6009.3669    5197.8031    5215.7779          141          141          141      2803221 0.00043190207    13761.683 
   20101    6009.3669    6009.3669    5207.9584    5216.1073          141          141          141      2803221 0.0009908282    13761.308 
   20102    6009.3669    6009.3669     5229.024    5216.6766          141          141          141      2803221  0.071470038    13760.695 
   20103    6009.3669    6009.3669    5222.3376    5217.2227          141          141          141      2803221  0.014741886    13760.364 
   20104    6009.3669    6009.3669    5227.8521    5218.3653          141          141          141      2803221   0.11700698     13759.64 
   20105    6009.3669    6009.3669    5211.2693    5217.1422          141          141          141      2803221  0.019700694    13759.351 
   20106    6009.3669    6009.3669    5223.2439    5217.0022          141          141          141      2803221   0.16629928    13758.886 
   20107    6009.3669    6009.3669    5205.1218    5215.2848          141          141          141      2803221   0.12817154    13758.438 
   20108    6009.3669    6009.3669    5215.7433    5214.8601          141          141          141      2803221   0.07239925     13757.92 
   20109    6009.3669    6009.3669     5209.901    5215.0255          141          141          141      2803221  0.087924358    13757.585 
   20110    6009.3669    6009.3669     5212.494    5216.4946          141          141          141      2803221  0.077895224    13757.235 
   20111    6009.3669    6009.3669    5213.9791    5217.0966          141          141          141      2803221  0.038229976    13756.954 
   20112    6009.3669    6009.3669      5217.13    5215.9072          141          141          141      2803221   0.04041914     13756.74 
   20113    6009.3669    6009.3669    5218.3419    5215.5076          141          141          141      2803221  0.068880779    13756.544 
   20114    6009.3669    6009.3669    5213.2739    5214.0498          141          141          141      2803221  0.047632938    13756.287 
   20115    6009.3669    6009.3669    5205.9845    5213.5213          141          141          141      2803221  0.028901342    13755.907 
   20116    6009.3669    6009.3669    5211.9944    5212.3964          141          141          141      2803221  0.074469467    13755.589 
   20117    6009.3669    6009.3669    5210.9558    5212.9798          141          141          141      2803221  0.028878684    13755.303 
   20118    6009.3669    6009.3669    5220.2331    5213.4288          141          141          141      2803221  0.058928823    13754.855 
   20119    6009.3669    6009.3669     5217.579    5214.1966          141          141          141      2803221  0.023521299    13754.527 
   20120    6009.3669    6009.3669    5206.8234    5213.6295          141          141          141      2803221  0.011809984    13753.987 
   20121    6009.3669    6009.3669    5209.0413    5213.1357          141          141          141      2803221  0.028115476    13753.584 
   20122    6009.3669    6009.3669    5208.4498    5212.2677          141          141          141      2803221  0.042156989     13753.06 
   20123    6009.3669    6009.3669    5210.0071    5211.4342          141          141          141      2803221  0.041357407    13752.565 
   20124    6009.3669    6009.3669    5205.7902    5210.6859          141          141          141      2803221  0.058859936    13752.361 
   20125    6009.3669    6009.3669    5211.4972    5211.2371          141          141          141      2803221  0.036154477    13751.991 
   20126    6009.3669    6009.3669    5211.8825    5211.2259          141          141          141      2803221  0.079159245    13751.601 
   20127    6009.3669    6009.3669    5221.1878    5212.2491          141          141          141      2803221  0.084300069    13751.269 
   20128    6009.3669    6009.3669    5213.9878    5211.6246          141          141          141      2803221  0.073306973    13750.894 
   20129    6009.3669    6009.3669    5205.1969    5210.3864          141          141          141      2803221  0.041729755    13750.568 
   20130    6009.3669    6009.3669    5202.5316    5209.9572          141          141          141      2803221  0.017568842    13750.165 
   20131    6009.3669    6009.3669    5211.5103    5210.2041          141          141          141      2803221  0.035282308    13749.744 
   20132    6009.3669    6009.3669    5213.3231    5210.6914          141          141          141      2803221  0.028678274    13749.395 
   20133    6009.3669    6009.3669    5212.0902    5210.8998          141          141          141      2803221  0.050707695    13748.875 
   20134    6009.3669    6009.3669    5201.6697    5210.4877          141          141          141      2803221  0.013764689    13748.645 
   20135    6009.3669    6009.3669    5202.2656    5209.5645          141          141          141      2803221 0.0039894063    13748.183 
   20136    6009.3669    6009.3669     5208.445    5209.2208          141          141          141      2803221  0.017133188    13747.602 
   20137    6009.3669    6009.3669    5217.3889    5208.8409          141          141          141      2803221  0.079418124    13747.246 
   20138    6009.3669    6009.3669    5205.1012    5207.9522          141          141          141      2803221 0.0098420602    13746.988 
   20139    6009.3669    6009.3669    5207.1915    5208.1517          141          141          141      2803221  0.015178115    13746.667 
   20140    6009.3669    6009.3669    5210.4126    5208.9398          141          141          141      2803221  0.018120381    13746.246 
   20141    6009.3669    6009.3669    5212.2662    5209.0154          141          141          141      2803221  0.060486041    13745.674 
   20142    6009.3669    6009.3669    5202.2479    5207.9079          141          141          141      2803221 0.0035135461    13745.543 
   20143    6009.3669    6009.3669    5204.1256    5207.1114          141          141          141      2803221 0.00025033348    13745.319 
   20144    6009.3669    6009.3669    5211.2527    5208.0697          141          141          141      2803221 0.0089011877    13744.898 
   20145    6009.3669    6009.3669    5215.4079     5209.384          141          141          141      2803221  0.042816939    13744.641 
   20146    6009.3669    6009.3669    5207.9729    5209.3368          141          141          141      2803221 0.0055122994    13744.509 
   20147    6009.3669    6009.3669    5208.7786    5208.4757          141          141          141      2803221 0.0082051695    13744.248 
   20148    6009.3669    6009.3669    5220.9411    5210.0597          141          141          141      2803221  0.068197251    13743.775 
   20149    6009.3669    6009.3669    5212.8142     5210.622          141          141          141      2803221  0.034014456    13743.565 
   20150    6009.3669    6009.3669    5210.1119    5210.5919          141          141          141      2803221  0.024861954    13743.363 
   20151    6009.3669    6009.3669    5204.7467      5209.84          141          141          141      2803221 0.0015130752    13743.267 
   20152    6009.3669    6009.3669    5208.2134    5210.4365          141          141          141      2803221 0.0016184378    13743.064 
   20153    6009.3669    6009.3669    5214.4377    5211.4677          141          141          141      2803221  0.032573993    13742.784 
   20154    6009.3669    6009.3669    5206.0043    5210.9429          141          141          141      2803221 0.0034649942    13742.726 
   20155    6009.3669    6009.3669    5206.9049    5210.0926          141          141          141      2803221 0.0013762304    13742.592 
   20156    6009.3669    6009.3669    5224.4371     5211.739          141          141          141      2803221  0.072265214    13742.344 
   20157    6009.3669    6009.3669    5214.3809    5212.2992          141          141          141      2803221  0.022735343    13742.186 
   20158    6009.3669    6009.3669    5214.8873    5211.6938          141          141          141      2803221  0.077964654    13741.937 
   20159    6009.3669    6009.3669    5212.7727    5211.6897          141          141          141      2803221  0.031074002    13741.787 
   20160    6009.3669    6009.3669    5207.8822    5211.4667          141          141          141      2803221  0.021733862    13741.669 
   20161    6009.3669    6009.3669    5209.5624    5211.9483          141          141          141      2803221  0.027340483     13741.57 
   20162    6009.3669    6009.3669    5212.9386    5212.4208          141          141          141      2803221  0.035498497    13741.449 
   20163    6009.3669    6009.3669     5214.751    5212.4521          141          141          141      2803221  0.032223104    13741.282 
   20164    6009.3669    6009.3669    5212.9809    5213.1498          141          141          141      2803221  0.026086026    13741.151 
   20165    6009.3669    6009.3669    5212.7744    5213.7368          141          141          141      2803221  0.027318868    13741.047 
   20166    6009.3669    6009.3669    5208.8258    5212.1756          141          141          141      2803221  0.015099229    13740.967 
   20167    6009.3669    6009.3669    5209.0323    5211.6408          141          141          141      2803221  0.016707578    13740.866 
   20168    6009.3669    6009.3669    5212.1162    5211.3637          141          141          141      2803221  0.025304401    13740.786 
   20169    6009.3669    6009.3669    5209.3199    5211.0184          141          141          141      2803221  0.011409717    13740.681 
   20170    6009.3669    6009.3669    5209.9429    5211.2244          141          141          141      2803221   0.01406083    13740.551 
   20171    6009.3669    6009.3669    5210.4195    5211.3102          141          141          141      2803221  0.018102286    13740.449 
   20172    6009.3669    6009.3669    5207.2286    5210.7392          141          141          141      2803221  0.014102748    13740.337 
   20173    6009.3669    6009.3669    5208.2366    5210.0877          141          141          141      2803221  0.015434347    13740.234 
   20174    6009.3669    6009.3669    5207.9689    5209.5865          141          141          141      2803221  0.012958516     13740.15 
   20175    6009.3669    6009.3669    5208.2199    5209.1311          141          141          141      2803221  0.018665746    13740.047 
   20176    6009.3669    6009.3669    5206.3391    5208.8824          141          141          141      2803221  0.011082301    13739.963 
   20177    6009.3669    6009.3669    5207.6148    5208.7406          141          141          141      2803221   0.01944613    13739.878 
   20178    6009.3669    6009.3669    5205.4685    5208.0759          141          141          141      2803221 0.0091938299     13739.81 
   20179    6009.3669    6009.3669    5208.9269    5208.0366          141          141          141      2803221  0.027171801    13739.707 
   20180    6009.3669    6009.3669    5205.6702    5207.6093          141          141          141      2803221  0.009828582     13739.64 
   20181    6009.3669    6009.3669    5208.8473    5207.4521          141          141          141      2803221  0.026082988    13739.554 
   20182    6009.3669    6009.3669    5206.0946    5207.3387          141          141          141      2803221  0.017075652     13739.48 
   20183    6009.3669    6009.3669    5208.2213    5207.3372          141          141          141      2803221   0.01644681    13739.399 
   20184    6009.3669    6009.3669    5210.4623    5207.5865          141          141          141      2803221   0.02339086    13739.331 
   20185    6009.3669    6009.3669    5209.3281    5207.6973          141          141          141      2803221  0.012556839    13739.271 
   20186    6009.3669    6009.3669    5208.6904    5207.9324          141          141          141      2803221  0.019098361    13739.174 
   20187    6009.3669    6009.3669    5208.6072    5208.0317          141          141          141      2803221  0.019485584    13739.103 
   20188    6009.3669    6009.3669    5207.8374    5208.2686          141          141          141      2803221  0.012655541    13739.039 
   20189    6009.3669    6009.3669    5207.1825    5208.0941          141          141          141      2803221  0.013684711    13738.953 
   20190    6009.3669    6009.3669    5207.1403    5208.2411          141          141          141      2803221  0.015802357    13738.877 
   20191    6009.3669    6009.3669    5208.4565    5208.2021          141          141          141      2803221  0.014366077    13738.823 
   20192    6009.3669    6009.3669    5208.4833    5208.4409          141          141          141      2803221  0.013365465     13738.76 
   20193    6009.3669    6009.3669    5208.5065    5208.4695          141          141          141      2803221  0.013339231    13738.701 
   20194    6009.3669    6009.3669    5209.5094    5208.3742          141          141          141      2803221  0.019011713     13738.64 
   20195    6009.3669    6009.3669    5208.6339    5208.3047          141          141          141      2803221  0.015952781    13738.577 
   20196    6009.3669    6009.3669    5207.9237    5208.2281          141          141          141      2803221  0.011931379    13738.516 
   20197    6009.3669    6009.3669    5208.9735    5208.2647          141          141          141      2803221  0.012335686    13738.457 
   20198    6009.3669    6009.3669    5208.6183    5208.3428          141          141          141      2803221  0.015261636    13738.404 
   20199    6009.3669    6009.3669     5208.067    5208.4312          141          141          141      2803221  0.014933372     13738.34 
   20200    6009.3669    6009.3669    5209.3147    5208.6487          141          141          141      2803221  0.017733734    13738.287 
   20201    6009.3669    6009.3669    5208.5304    5208.6561          141          141          141      2803221  0.012128398    13738.231 
   20202    6009.3669    6009.3669    5209.5868    5208.7664          141          141          141      2803221  0.012616214    13738.186 
   20203    6009.3669    6009.3669    5207.1173    5208.6275          141          141          141      2803221 0.0085861036    13738.113 
   20204    6009.3669    6009.3669    5209.3325    5208.6098          141          141          141      2803221  0.011257182    13738.054 
   20205    6009.3669    6009.3669    5207.8307    5208.5295          141          141          141      2803221 0.0096483419    13738.002 
   20206    6009.3669    6009.3669    5206.4556    5208.3827          141          141          141      2803221 0.0058811799    13737.947 
   20207    6009.3669    6009.3669    5208.5323    5208.3386          141          141          141      2803221  0.013735563    13737.885 
   20208    6009.3669    6009.3669    5206.0411    5208.0808          141          141          141      2803221  0.006125021    13737.828 
   20209    6009.3669    6009.3669    5208.0245    5208.0766          141          141          141      2803221  0.015133249    13737.758 
   20210    6009.3669    6009.3669    5207.5176    5207.8969          141          141          141      2803221 0.0083193606    13737.719 
   20211    6009.3669    6009.3669    5209.0447    5207.9483          141          141          141      2803221  0.013740037    13737.675 
   20212    6009.3669    6009.3669    5207.8441     5207.774          141          141          141      2803221  0.013068047    13737.625 
   20213    6009.3669    6009.3669     5207.828    5207.8451          141          141          141      2803221 0.0095773571    13737.589 
   20214    6009.3669    6009.3669    5208.6974    5207.7816          141          141          141      2803221  0.010936824    13737.534 
   20215    6009.3669    6009.3669    5208.9523    5207.8938          141          141          141      2803221  0.010833445    13737.493 
   20216    6009.3669    6009.3669    5208.8067    5208.1289          141          141          141      2803221 0.0086391907    13737.455 
   20217    6009.3669    6009.3669    5208.2011    5208.0958          141          141          141      2803221 0.0091579393    13737.413 
   20218    6009.3669    6009.3669     5209.712    5208.4628          141          141          141      2803221   0.01275737    13737.374 
   20219    6009.3669    6009.3669    5207.6192    5208.4223          141          141          141      2803221 0.0090975398    13737.339 
   20220    6009.3669    6009.3669    5208.3872    5208.5093          141          141          141      2803221 0.0080693061    13737.299 
   20221    6009.3669    6009.3669    5209.3425    5208.5391          141          141          141      2803221  0.011359228    13737.266 
   20222    6009.3669    6009.3669    5208.3598    5208.5906          141          141          141      2803221  0.007829613    13737.231 
   20223    6009.3669    6009.3669    5208.5284    5208.6607          141          141          141      2803221  0.011622181    13737.187 
   20224    6009.3669    6009.3669    5209.1507     5208.706          141          141          141      2803221 0.0090150585    13737.156 
   20225    6009.3669    6009.3669    5207.5588    5208.5667          141          141          141      2803221 0.0092502266    13737.102 
   20226    6009.3669    6009.3669    5207.2803     5208.414          141          141          141      2803221 0.0068625434    13737.078 
   20227    6009.3669    6009.3669    5208.3216    5208.4261          141          141          141      2803221 0.0083137209    13737.036 
   20228    6009.3669    6009.3669    5208.1032    5208.2652          141          141          141      2803221 0.0099373912    13737.005 
   20229    6009.3669    6009.3669    5208.7241    5208.3757          141          141          141      2803221  0.009225745    13736.972 
   20230    6009.3669    6009.3669    5207.8194    5208.3189          141          141          141      2803221 0.0097020097    13736.945 
   20231    6009.3669    6009.3669    5207.3456    5208.1192          141          141          141      2803221 0.0065209208    13736.905 
   20232    6009.3669    6009.3669    5208.3993    5208.1232          141          141          141      2803221   0.00725788    13736.876 
   20233    6009.3669    6009.3669     5207.432    5208.0135          141          141          141      2803221 0.0064492332    13736.844 
   20234    6009.3669    6009.3669    5208.8343    5207.9819          141          141          141      2803221 0.0076423154    13736.817 
   20235    6009.3669    6009.3669    5207.4807    5207.9741          141          141          141      2803221 0.0061901663     13736.78 
   20236    6009.3669    6009.3669    5208.8083    5208.1269          141          141          141      2803221  0.006427066    13736.749 
   20237    6009.3669    6009.3669    5208.4277    5208.1375          141          141          141      2803221 0.0072100827    13736.722 
   20238    6009.3669    6009.3669    5207.9748    5208.1246          141          141          141      2803221  0.007435445    13736.686 
   20239    6009.3669    6009.3669    5208.0382     5208.056          141          141          141      2803221 0.0065653257    13736.665 
   20240    6009.3669    6009.3669    5208.6568    5208.1398          141          141          141      2803221  0.010836597    13736.636 
   20241    6009.3669    6009.3669    5208.2418    5208.2294          141          141          141      2803221 0.0059373747    13736.616 
   20242    6009.3669    6009.3669    5207.8941    5208.1789          141          141          141      2803221 0.0096799504    13736.592 
   20243    6009.3669    6009.3669    5207.9278    5208.2284          141          141          141      2803221 0.0072848019    13736.567 
   20244    6009.3669    6009.3669    5208.5336    5208.1984          141          141          141      2803221 0.0065348226    13736.542 
   20245    6009.3669    6009.3669    5208.2494    5208.2752          141          141          141      2803221 0.0066687433    13736.523 
   20246    6009.3669    6009.3669    5207.4704    5208.1414          141          141          141      2803221 0.0067779908    13736.492 
   20247    6009.3669    6009.3669    5207.2985    5208.0285          141          141          141      2803221 0.0058717835    13736.468 
   20248    6009.3669    6009.3669    5207.6009    5207.9911          141          141          141      2803221  0.004526733     13736.45 
   20249    6009.3669    6009.3669    5208.4411    5208.0314          141          141          141      2803221 0.0066287801     13736.43 
   20250    6009.3669    6009.3669    5208.4521     5208.011          141          141          141      2803221 0.0063743667    13736.406 
   20251    6009.3669    6009.3669    5208.2821     5208.015          141          141          141      2803221 0.0071313575    13736.386 
   20252    6009.3669    6009.3669    5207.7487    5208.0005          141          141          141      2803221 0.0054346165    13736.361 
   20253    6009.3669    6009.3669    5208.3725    5208.0449          141          141          141      2803221 0.0060997089    13736.341 
   20254    6009.3669    6009.3669    5208.1147    5208.0031          141          141          141      2803221 0.0055140362    13736.321 
   20255    6009.3669    6009.3669    5208.0261    5207.9807          141          141          141      2803221 0.0048227053    13736.303 
   20256    6009.3669    6009.3669     5208.111    5208.0448          141          141          141      2803221 0.0078615021    13736.278 
   20257    6009.3669    6009.3669    5207.5222    5208.0672          141          141          141      2803221 0.0061032611    13736.257 
   20258    6009.3669    6009.3669    5208.1452    5208.1216          141          141          141      2803221 0.0052265742    13736.239 
   20259    6009.3669    6009.3669    5208.2183    5208.0993          141          141          141      2803221 0.0060341658    13736.217 
   20260    6009.3669    6009.3669    5208.3936    5208.0934          141          141          141      2803221 0.0054023442    13736.204 
   20261    6009.3669    6009.3669     5208.587    5208.1239          141          141          141      2803221 0.0070334039    13736.185 
   20262    6009.3669    6009.3669    5208.1104    5208.1601          141          141          141      2803221 0.0050613768    13736.167 
   20263    6009.3669    6009.3669    5208.5844    5208.1813          141          141          141      2803221 0.0060012948    13736.145 
   20264    6009.3669    6009.3669    5208.3628    5208.2061          141          141          141      2803221 0.0055959969    13736.127 
   20265    6009.3669    6009.3669     5208.024    5208.2059          141          141          141      2803221 0.0047505611    13736.115 
   20266    6009.3669    6009.3669    5207.9007    5208.1849          141          141          141      2803221 0.0056230823    13736.097 
   20267    6009.3669    6009.3669    5207.8109    5208.2137          141          141          141      2803221 0.0045795242    13736.083 
   20268    6009.3669    6009.3669    5208.3747    5208.2367          141          141          141      2803221 0.0042841751    13736.071 
   20269    6009.3669    6009.3669    5208.5593    5208.2708          141          141          141      2803221 0.0046955289    13736.058 
   20270    6009.3669    6009.3669     5208.141    5208.2455          141          141          141      2803221 0.0037731112    13736.039 
   20271    6009.3669    6009.3669    5208.0943    5208.1962          141          141          141      2803221  0.006861321    13736.021 
   20272    6009.3669    6009.3669    5207.8692    5208.1721          141          141          141      2803221 0.0048341854    13736.003 
   20273    6009.3669    6009.3669    5207.7733     5208.091          141          141          141      2803221 0.0038734822    13735.991 
   20274    6009.3669    6009.3669    5208.1415    5208.0689          141          141          141      2803221 0.0040959173    13735.979 
   20275    6009.3669    6009.3669    5207.6096    5208.0275          141          141          141      2803221  0.003183258    13735.965 
   20276    6009.3669    6009.3669    5208.1122    5208.0486          141          141          141      2803221 0.0043884711    13735.954 
   20277    6009.3669    6009.3669    5208.7754    5208.1451          141          141          141      2803221 0.0042359257    13735.942 
   20278    6009.3669    6009.3669     5208.908    5208.1984          141          141          141      2803221 0.0049873871     13735.93 
   20279    6009.3669    6009.3669    5208.8315    5208.2256          141          141          141      2803221 0.0059708829    13735.914 
   20280    6009.3669    6009.3669    5207.4509    5208.1566          141          141          141      2803221 0.0038352959      13735.9 
   20281    6009.3669    6009.3669    5207.9361    5208.1408          141          141          141      2803221 0.0040297245     13735.89 
   20282    6009.3669    6009.3669    5207.8074    5208.1346          141          141          141      2803221 0.0030081588    13735.881 
   20283    6009.3669    6009.3669     5208.292    5208.1865          141          141          141      2803221 0.0035217396    13735.869 
   20284    6009.3669    6009.3669    5208.7054    5208.2429          141          141          141      2803221 0.0035629457    13735.858 
   20285    6009.3669    6009.3669    5207.6498    5208.2469          141          141          141      2803221 0.0029938318    13735.848 
   20286    6009.3669    6009.3669    5208.3451    5208.2701          141          141          141      2803221 0.0035084428    13735.836 
   20287    6009.3669    6009.3669     5209.291    5208.3217          141          141          141      2803221 0.0060312022    13735.822 
   20288    6009.3669    6009.3669    5208.4833    5208.2792          141          141          141      2803221 0.0039458768    13735.812 
   20289    6009.3669    6009.3669    5207.8374    5208.1798          141          141          141      2803221  0.004422654    13735.803 
   20290    6009.3669    6009.3669    5207.9786    5208.2326          141          141          141      2803221 0.0043577246     13735.79 
   20291    6009.3669    6009.3669    5208.4553    5208.2845          141          141          141      2803221 0.0035370687    13735.776 
   20292    6009.3669    6009.3669     5207.691    5208.2729          141          141          141      2803221 0.0027578365    13735.767 
   20293    6009.3669    6009.3669    5208.3463    5208.2783          141          141          141      2803221 0.0035381403    13735.758 
   20294    6009.3669    6009.3669    5208.8804    5208.2958          141          141          141      2803221  0.003359128    13735.749 
   20295    6009.3669    6009.3669    5208.5136    5208.3822          141          141          141      2803221 0.0033841655    13735.737 
   20296    6009.3669    6009.3669    5208.4854    5208.3962          141          141          141      2803221 0.0033621183     13735.73 
   20297    6009.3669    6009.3669    5208.3248    5208.2996          141          141          141      2803221 0.0029128532     13735.72 
   20298    6009.3669    6009.3669    5207.7566    5208.2269          141          141          141      2803221 0.0027615374    13735.713 
   20299    6009.3669    6009.3669    5208.6819    5208.3114          141          141          141      2803221 0.0032527503    13735.704 
   20300    6009.3669    6009.3669    5208.6561    5208.3791          141          141          141      2803221 0.0029254367    13735.697 
   20301    6009.3669    6009.3669    5207.7348    5208.3071          141          141          141      2803221 0.0026722415     13735.69 
   20302    6009.3669    6009.3669    5208.0413    5208.3421          141          141          141      2803221 0.0023884083    13735.681 
   20303    6009.3669    6009.3669    5208.6971    5208.3772          141          141          141      2803221 0.0033243439    13735.672 
   20304    6009.3669    6009.3669    5208.5469    5208.3439          141          141          141      2803221  0.002901538    13735.663 
   20305    6009.3669    6009.3669    5208.3568    5208.3282          141          141          141      2803221 0.0030473101    13735.654 
   20306    6009.3669    6009.3669    5207.8561    5208.2652          141          141          141      2803221 0.0018549807    13735.648 
   20307    6009.3669    6009.3669    5208.3967    5208.2724          141          141          141      2803221 0.0029787472    13735.641 
   20308    6009.3669    6009.3669    5204.9907    5207.9959          141          141          141      2803221 3.7860819e-06    13735.638 
Loop time of 5.69538 on 48 procs for 308 steps with 17600 atoms

Minimization stats:
  E initial, next-to-last, final = 4042.28 65.2371 65.2338
  Gradient 2-norm init/final= 670.894 0.820347
  Gradient inf-norm init/final= 43.4405 0.0522184
  Iterations = 308
  Force evaluations = 1958

Pair  time (%) = 0.071168 (1.24957)
Bond  time (%) = 0.20867 (3.66384)
Neigh time (%) = 0.000353744 (0.00621106)
Comm  time (%) = 2.67063 (46.8911)
Outpt time (%) = 0.40454 (7.10295)
Other time (%) = 2.34002 (41.0863)

Nlocal:    366.667 ave 445 max 310 min
Histogram: 4 4 7 11 5 6 6 1 2 2
Nghost:    359.458 ave 411 max 320 min
Histogram: 6 2 5 8 9 9 3 2 2 2
Neighs:    381.062 ave 513 max 278 min
Histogram: 2 6 10 6 7 7 2 2 2 4

Total # of neighbors = 18291
Ave neighs/atom = 1.03926
Ave special neighs/atom = 2.04545
Neighbor list builds = 1
Dangerous builds = 0

#########################################################################
# simulated annealing to create structure
pair_style sw
pair_coeff * * OCS.sw Si O C

thermo		100

unfix		1
fix		1 active npt 9000 3000 0.0100 xyz 90000 60000 0.1000 drag 2.00
run		50000
Memory usage per processor = 2.64193 Mbytes
Step Temp T_ave Press P_ave Lx Ly Lz Volume E_pair TotEng 
   20308    6009.3669    6009.3669    11326.873    5207.9959          141          141          141      2803221      3681.86    17417.498 
   20400    9034.5897    6311.8892    87255.998    13412.727    81.927401    81.927401    81.927401    549904.83    -2172.943    23299.761 
   20500    9025.8579    6613.5383    88437.203    21735.582    78.494182    78.494182    78.494182    483629.07   -5250.4805    20548.157 
   20600    8914.2068    6904.0223    88455.338    30060.342    77.920195    77.920195    77.920195    473096.89   -6283.2217    19681.887 
   20700    8979.6203    7201.0476    88171.428    38356.681    77.646202    77.646202    77.646202    468123.73   -6606.7383    19524.999 
   20800    8905.6361    7490.6745    89908.374    46826.649    77.633075    77.633075    77.633075    467886.35   -6679.6642    19309.419 
   20900    8938.7165    7783.6095    88803.101    55186.104    77.553715    77.553715    77.553715    466452.93   -6721.7835    19323.104 
   21000    8892.3717      8071.91    91235.498    63788.818    77.489622    77.489622    77.489622    465297.41   -6802.3602    19164.092 
   21100    8871.8696    8358.1603    90026.175     72270.65    77.425209    77.425209    77.425209    464138.04   -6869.1056    19043.991 
   21200     8935.682    8650.7918    90693.871    80819.198    77.385329    77.385329    77.385329     463421.2   -6925.0307    19103.142 
   21300    8876.1534    8937.4704    89321.573    89230.856    77.301979    77.301979    77.301979     461925.4    -6887.681     18981.09 
   21400    8831.1718    8917.1286    87064.739     89211.73    77.327202    77.327202    77.327202    462377.71   -6940.8878    18845.207 
   21500     8870.012     8901.544    90522.355    89420.245    77.315208    77.315208    77.315208    462162.58   -7025.9579    18819.872 
   21600    8863.6606    8896.4894    89341.166    89508.828    77.345665    77.345665    77.345665    462708.98   -7101.6753    18706.966 
   21700    8781.4038    8876.6678    90173.986    89709.084     77.36567     77.36567     77.36567    463068.11   -6972.2581    18634.122 
   21800    8843.3118    8870.4353    90457.205    89763.967    77.346168    77.346168    77.346168    462718.01   -6943.6851    18923.644 
   21900    8873.9493    8863.9586    88305.539    89714.211    77.290456    77.290456    77.290456    461718.86    -7125.824    18666.462 
   22000    8811.1854      8855.84    89780.298    89568.691    77.148343    77.148343    77.148343    459176.66   -7132.7639    18571.831 
   22100    8822.3648    8850.8895    91256.894    89691.763    77.308192    77.308192    77.308192    462036.78   -7119.2049    18552.117 
   22200    8742.3274     8831.554     89175.85     89539.96    77.268735    77.268735    77.268735    461329.69   -7082.5393    18372.665 
   22300    8723.1562    8816.2543    88523.387    89460.142    77.125265    77.125265    77.125265    458764.71    -7285.654    18274.492 
   22400     8725.562    8805.6933    86522.832    89405.951    77.161903    77.161903    77.161903    459418.84   -7143.9528    18326.024 
   22500    8683.4513    8787.0373    88987.027    89252.418    77.195747    77.195747    77.195747     460023.6   -7264.0607    18144.763 
   22600    8739.5165    8774.6228    90301.429    89348.445    77.178066    77.178066    77.178066     459707.6   -7176.8168    18213.936 
   22700    8656.2511    8762.1076    88583.734    89189.419     77.10387     77.10387     77.10387    458383.02   -7180.0516    18140.922 
   22800    8669.8142    8744.7578    84869.512     88630.65    77.171302    77.171302    77.171302    459586.73   -7191.8507    18113.246 
   22900    8717.0597    8729.0689    88775.287    88677.625    77.064688    77.064688    77.064688    457684.58   -7162.0402    18121.269 
   23000    8611.7272     8709.123    87969.212    88496.516    77.162524    77.162524    77.162524    459429.91   -7230.6603     17972.68 
   23100     8667.804     8693.667    86870.922    88057.919    77.135682    77.135682    77.135682    458950.63   -7275.8597    18008.283 
   23200     8634.261    8682.8603    87200.998    87860.434    77.111052    77.111052    77.111052    458511.13   -7134.4794    18055.216 
   23300    8649.9253    8675.5372    86694.016    87677.497    77.082912    77.082912    77.082912    458009.34   -7262.5087    17921.809 
   23400    8599.9659    8662.9776    86012.261     87626.44    77.199041    77.199041    77.199041     460082.5   -7242.2253    17892.969 
   23500    8619.9154     8656.624    90023.551    87730.092     77.06735     77.06735     77.06735    457732.01   -7153.0116    17933.019 
   23600     8635.166     8646.189    88884.148    87588.364    77.114632    77.114632    77.114632       458575   -7238.5984    18004.865 
   23700    8617.3537    8642.2992    88783.836    87608.374    77.031447    77.031447    77.031447    457092.57   -7339.9967    17801.375 
   23800    8562.9946    8631.6173    85434.823    87664.905    77.101611    77.101611    77.101611    458342.74   -7260.3553    17735.507 
   23900    8559.5838    8615.8697    85806.467    87368.023     77.12905     77.12905     77.12905    458832.25   -7406.1935    17665.658 
   24000    8520.9581    8606.7928    88902.555    87461.358    77.115039    77.115039    77.115039    458582.25   -7136.5971    17823.083 
   24100    8558.5819    8595.8706    88613.333    87635.599    77.069621    77.069621    77.069621    457772.47   -7270.5122    17795.316 
   24200    8570.9925    8589.5437    89460.189    87861.518    77.038027    77.038027    77.038027    457209.72   -7254.1496    17747.676 
   24300    8608.0519    8585.3564    86557.859    87847.902    76.905702    76.905702    76.905702    454857.78   -7401.1021    17728.551 
   24400    8538.4318     8579.203    86965.916    87943.268     76.95637     76.95637     76.95637    455757.39   -7385.2388    17458.014 
   24500    8432.5848    8560.4699    90083.775     87949.29     76.95297     76.95297     76.95297    455696.99   -7493.3453    17215.113 
   24600    8477.1775    8544.6711    88663.973    87927.273    76.960322    76.960322    76.960322    455827.61   -7447.7099    17228.844 
   24700    8470.3081    8529.9665    86221.475    87671.037    77.003442    77.003442    77.003442    456594.23   -7507.1597      17222.2 
   24800    8472.8754    8520.9546    88650.238    87992.578    76.902909    76.902909    76.902909    454808.22   -7457.3863     17323.87 
   24900    8439.0818    8508.9044    86101.638    88022.095    76.925906    76.925906    76.925906    455216.36   -7412.0971    17308.127 
   25000    8395.8868    8496.3972    84803.922    87612.232    76.974075    76.974075    76.974075    456072.03   -7577.1482    16993.913 
   25100    8407.3189    8481.2709    91224.465    87873.345    76.788606    76.788606    76.788606    452783.25    -7531.561    17053.025 
   25200    8346.0477    8458.7765     85215.23    87448.849    76.814626    76.814626    76.814626    453243.69    -7676.931    16800.779 
   25300    8375.0381    8435.4751    89613.319    87754.395    76.736366    76.736366    76.736366    451859.78   -7593.6896     17008.73 
   25400    8389.4855    8420.5805    87423.621    87800.166    76.827703    76.827703    76.827703    453475.21   -7598.2642    16968.179 
   25500    8374.9358    8414.8156     90649.84    87856.772    76.835458    76.835458    76.835458    453612.54   -7462.1278    17065.971 
   25600    8381.9624    8405.2941    84690.568    87459.432    76.862021    76.862021    76.862021    454083.17   -7616.6842    16791.935 
   25700    8352.8264    8393.5459    91576.512    87994.936    76.803625    76.803625    76.803625    453048.97   -7519.2432    16864.333 
   25800    8353.0471     8381.563     83230.11    87452.923     76.82458     76.82458     76.82458    453419.91   -7787.5228    16726.515 
   25900     8376.857    8375.3406    88351.477    87677.907    76.885632    76.885632    76.885632    454501.75   -7595.4574    16878.385 
   26000    8352.1793    8370.9698    86839.543    87881.469    76.901765    76.901765    76.901765    454787.92   -7644.4982    16703.368 
   26100    8272.1161    8357.4496    87350.131    87494.035    76.653959    76.653959    76.653959    450405.59   -7540.5163     16635.11 
   26200    8252.8567    8348.1305    85769.497    87549.462    76.801252    76.801252    76.801252    453006.99   -7532.7033    16613.073 
   26300    8320.2032     8342.647    83526.025    86940.733    76.830346    76.830346    76.830346    453522.01   -7730.5053    16620.735 
   26400     8290.453    8332.7437    85731.624    86771.533      76.7902      76.7902      76.7902    452811.44   -7722.1056    16546.943 
   26500    8281.8319    8323.4333    86863.258    86392.875    76.755698    76.755698    76.755698    452201.37   -7644.3208    16448.718 
   26600    8254.3537    8310.6724    86869.833    86610.801    76.798245    76.798245    76.798245    452953.77   -7673.4929    16484.325 
   26700     8230.669    8298.4567    84862.681    85939.418     76.74534     76.74534     76.74534    452018.33   -7702.3988    16355.727 
   26800    8202.8003     8283.432    85351.656    86151.573    76.814668    76.814668    76.814668    453244.42   -7741.9893    16277.764 
   26900    8238.8788    8269.6342    88283.495    86144.774     76.72335     76.72335     76.72335    451629.88   -7721.0453    16430.832 
   27000     8203.802    8254.7965    82259.464    85686.766    76.832149    76.832149    76.832149    453553.93   -7742.1536    16267.964 
   27100    8181.7112     8245.756    87679.151    85719.668    76.659538    76.659538    76.659538    450503.94   -7772.2195    16235.919 
   27200    8149.2654    8235.3969    85635.956    85706.314    76.770744    76.770744    76.770744    452467.36    -7843.739    15986.379 
   27300    8172.3048     8220.607    85186.188    85872.331    76.771462    76.771462    76.771462    452480.04   -7768.0607    16105.051 
   27400    8132.1845    8204.7802     87666.56    86065.824     76.73171     76.73171     76.73171    451777.54   -7858.2283    16035.692 
   27500    8080.9622    8184.6932    85603.719     85939.87    76.814417    76.814417    76.814417    453239.98   -7732.9817    15943.407 
   27600    8128.3809    8172.0959    86044.268    85857.314    76.738549    76.738549    76.738549    451898.35   -7991.7967    15827.335 
   27700    8112.8882    8160.3178    84369.897    85808.035    76.585383    76.585383    76.585383    449197.84   -8026.5832    15721.072 
   27800    8085.8833    8148.6261    84979.481    85770.818    76.663021    76.663021    76.663021    450565.35   -7957.1331    15765.681 
   27900    8101.2224    8134.8605    85620.784    85504.547    76.605673    76.605673    76.605673    449554.96   -8003.5021    15666.741 
   28000    8092.1965    8123.6999    85842.998      85862.9    76.633784    76.633784    76.633784    450050.05    -7979.921    15626.639 
   28100    8049.2628    8110.4551    85690.964    85664.081    76.678129    76.678129    76.678129    450831.78    -7998.587    15544.042 
   28200     8135.898    8109.1184    86527.402    85753.226    76.524307    76.524307    76.524307    448124.01    -8151.426    15644.307 
   28300    8071.9518     8099.083    83219.546    85556.562    76.673494    76.673494    76.673494    450750.03   -7943.1956    15654.707 
   28400    8009.5885    8086.8235    84287.878    85218.694     76.61928     76.61928     76.61928    449794.57   -7986.4173    15474.815 
   28500    8007.3508    8079.4623     81772.05    84835.527    76.621289    76.621289    76.621289    449829.95   -7907.2302    15555.618 
   28600    8025.5598    8069.1802    85758.641    84806.964    76.560635    76.560635    76.560635    448762.52   -8036.5172    15371.513 
   28700    7968.8544    8054.7768    86321.672    85002.141     76.55505     76.55505     76.55505    448664.32    -8145.476    15229.081 
   28800    7961.2955     8042.318    85028.297    85007.023      76.5664      76.5664      76.5664    448863.91   -8053.5844      15278.1 
   28900    7928.9081    8025.0866     86710.86    85116.031    76.481441    76.481441    76.481441    447371.37    -8155.149    15108.287 
   29000    7904.0247    8006.2694    85978.172    85129.548     76.58333     76.58333     76.58333    449161.72    -8019.285    15167.307 
   29100     7943.522    7995.6954    84015.069    84961.959    76.612526    76.612526    76.612526    449675.63    -7991.279    15313.926 
   29200    7879.1438    7970.0199    83192.591    84628.478    76.513174    76.513174    76.513174    447928.45   -8121.0537    15037.371 
   29300    7906.9576    7953.5205    88529.551    85159.478    76.478179    76.478179    76.478179    447314.13   -7994.9373    15158.697 
   29400    7912.5462    7943.8163    83425.787    85073.269    76.607551    76.607551    76.607551    449588.03   -7989.2431     15146.65 
   29500    7878.2385    7930.9051    85992.986    85495.363    76.418567    76.418567    76.418567    446268.95   -8187.0363    14893.043 
   29600    7856.9017    7914.0392    86364.936    85555.992    76.448562    76.448562    76.448562    446794.64   -8096.7673    14911.224 
   29700    7906.1459    7907.7684    85050.005    85428.825    76.412368    76.412368    76.412368    446160.35   -8110.4668    15051.291 
   29800    7879.8139    7899.6202    86493.816    85575.377    76.335865    76.335865    76.335865    444821.63   -8223.5308    14843.677 
   29900    7854.6253     7892.192    82746.369    85178.928    76.428541    76.428541    76.428541    446443.71   -8110.6884    14893.324 
   30000    7815.1482    7883.3043    80494.418    84630.553    76.473023    76.473023    76.473023    447223.67   -8303.3132    14667.768 
   30100    7839.1735    7872.8695    84499.468    84678.993    76.290777    76.290777    76.290777    444033.89   -8313.9477    14617.387 
   30200    7815.0071    7866.4558     79552.42    84314.976    76.373147    76.373147    76.373147    445473.69   -8356.7251    14520.371 
   30300    7768.9519    7852.6552    84868.743    83948.895    76.389865    76.389865    76.389865    445766.29   -8245.2515    14522.987 
   30400    7760.0282    7837.4034    84888.508    84095.167    76.351778    76.351778    76.351778    445099.87    -8305.791    14447.391 
   30500    7797.3079    7829.3103     81782.66    83674.134     76.34718     76.34718     76.34718    445019.45   -8313.5247    14528.685 
   30600    7769.8321    7820.6034    83856.337    83423.274    76.373477    76.373477    76.373477    445479.46   -8264.1739    14499.507 
   30700    7757.3274    7805.7215    82096.591    83127.933    76.381465    76.381465    76.381465    445619.26   -8384.1416    14351.302 
   30800    7755.9731    7793.3375    84169.075    82895.459     76.26267     76.26267     76.26267    443543.29   -8384.7953     14362.94 
   30900    7785.9413    7786.4691    81884.476     82809.27    76.242374    76.242374    76.242374    443189.27   -8467.1104    14366.192 
   31000    7669.6224    7771.9165    83866.468    83146.474    76.304279    76.304279    76.304279    444269.69   -8423.3544    14015.853 
   31100    7739.4582     7761.945    83575.662    83054.094    76.314991    76.314991    76.314991    444456.82    -8417.271    14221.268 
   31200    7689.2088    7749.3651     85374.15    83636.267    76.289559    76.289559    76.289559    444012.61   -8361.0417    14130.919 
   31300    7714.1525    7743.8852    82129.689    83362.361    76.323088    76.323088    76.323088     444598.3   -8463.0121    14105.202 
   31400    7655.5078    7733.4332    82820.675    83155.578    76.331258    76.331258    76.331258    444741.09   -8459.8219    14062.318 
   31500    7659.1497    7719.6173    83321.656    83309.478    76.251871    76.251871    76.251871     443354.9   -8419.6353    14024.582 
   31600    7633.1091     7705.945    84269.881    83350.832    76.209746    76.209746    76.209746    442620.52   -8491.9808    14002.218 
   31700    7599.5839    7690.1707     84696.46    83610.819    76.305897    76.305897    76.305897    444297.95    -8332.188     13959.09 
   31800    7642.4903    7678.8224    85186.566    83712.568    76.224392    76.224392    76.224392    442875.76   -8478.1397    13962.168 
   31900    7646.3165    7664.8599    83779.201    83902.041    76.188494    76.188494    76.188494    442250.33   -8547.4031    13852.547 
   32000    7668.7447    7664.7722    80727.745    83588.169    76.153712    76.153712    76.153712    441644.91   -8505.4693    13869.162 
   32100    7646.7998    7655.5063    83887.654    83619.368    76.163763    76.163763    76.163763    441819.81   -8563.3199    13722.398 
   32200    7562.7196    7642.8574    84420.196    83523.972    76.217379    76.217379    76.217379    442753.53   -8569.2969    13665.197 
   32300    7599.7554    7631.4177    81519.829    83462.986    76.122348    76.122348    76.122348    441099.46   -8661.3347    13585.236 
   32400    7541.5241    7620.0193     83601.92    83541.111     76.21759     76.21759     76.21759    442757.21   -8519.5725     13551.65 
   32500    7457.4278    7599.8471    81801.942    83389.139    76.088399    76.088399    76.088399    440509.56   -8647.8899    13364.513 
   32600    7480.7701    7584.6132     80342.37    82996.388    76.157449    76.157449    76.157449    441709.94   -8601.9501    13438.861 
   32700    7538.6612     7578.521    80826.669    82609.409    76.036928    76.036928    76.036928    439616.21   -8727.4507    13392.762 
   32800    7476.8655    7561.9585    83803.225    82471.075    76.057812    76.057812    76.057812    439978.53    -8541.837    13321.535 
   32900    7440.0472    7541.3316    82229.728    82316.128     76.14044     76.14044     76.14044    441414.04    -8657.205    13161.051 
   33000    7436.1067    7518.0678    81081.204    82351.474    76.037582    76.037582    76.037582    439627.54    -8686.859    13110.071 
   33100    7489.3513    7502.3229    82799.465    82242.655    76.101564    76.101564    76.101564    440738.25    -8641.152    13301.858 
   33200    7481.5066    7494.2016    84267.313    82227.366    76.107019    76.107019    76.107019    440833.03    -8755.969    13199.693 
   33300    7492.3027    7483.4563    79748.474    82050.231    76.126266    76.126266    76.126266    441167.57   -8829.7901    13115.403 
   33400    7476.7136    7476.9753    85030.093    82193.048    76.047184    76.047184    76.047184    439794.11   -8746.5779    13098.151 
   33500    7430.9143    7474.3239    80768.537    82089.708    76.081612    76.081612    76.081612     440391.7   -8814.2021    12936.231 
   33600    7357.9722    7462.0441    82037.703    82259.241    76.053801    76.053801    76.053801    439908.92   -8663.2636    12837.885 
   33700    7401.1843    7448.2964    80688.141    82245.388    76.085018    76.085018    76.085018    440450.84   -8784.6258    12943.772 
   33800    7367.3646    7437.3463    80327.881    81897.854    75.944224    75.944224    75.944224    438010.22   -8817.2895    12794.217 
   33900     7335.771    7426.9187    79617.273    81636.608    75.979947    75.979947    75.979947    438628.61   -8784.1406    12826.832 
   34000    7318.1994     7415.128    83267.983    81855.286    75.919712    75.919712    75.919712    437586.23   -8836.1874    12780.943 
   34100    7323.1857    7398.5114     80599.64    81635.304    75.831748    75.831748    75.831748    436066.98    -8957.341    12622.513 
   34200    7349.5145    7385.3122    83256.767    81534.249    75.953037    75.953037    75.953037    438162.74   -8908.1184    12657.989 
   34300    7299.6237    7366.0443    80288.335    81588.235    75.908985    75.908985    75.908985    437400.78   -8961.4525    12558.244 
   34400    7317.0682    7350.0798    80242.144     81109.44    76.019666    76.019666    76.019666    439316.87   -9008.6482    12542.661 
   34500    7295.2748    7336.5158    81334.996    81166.086     76.02422     76.02422     76.02422    439395.81   -8911.8384    12598.227 
   34600    7288.9019    7329.6088    81526.918    81115.008    75.993928    75.993928    75.993928     438870.8   -8958.0373    12449.934 
   34700    7256.8387    7315.1743    81602.812    81206.475    75.972381    75.972381    75.972381    438497.59   -9041.7726    12399.136 
   34800    7202.4448    7298.6823    83833.699    81557.057    75.890711    75.890711    75.890711    437084.96   -8867.0854    12286.966 
   34900    7214.9108    7286.5963    80136.836    81609.013    75.934833    75.934833    75.934833    437847.75   -9026.8843    12265.076 
   35000    7252.0509    7279.9814    79749.035    81257.118    75.840363    75.840363    75.840363    436215.62   -9043.9767    12362.482 
   35100    7161.6886    7263.8317    79756.817    81172.836    75.929825    75.929825    75.929825    437761.13   -9083.2728    12080.905 
   35200     7166.433    7245.5235    79739.195    80821.079    75.865268    75.865268    75.865268    436645.49   -9036.8835    12162.471 
   35300    7202.2374    7235.7849    79514.664    80743.712    75.874001    75.874001    75.874001     436796.3   -9060.0644    12117.935 
   35400    7212.2433    7225.3024    82901.103    81009.608    75.826055    75.826055    75.826055    435968.77    -9021.272    12144.699 
   35500    7174.2119    7213.1961    80236.361    80899.744    75.851621    75.851621    75.851621     436409.9    -8957.509     12174.72 
   35600    7156.1682    7199.9228    82353.336    80982.386    75.875423    75.875423    75.875423    436820.86   -9104.4258    11901.027 
   35700    7242.4493    7198.4838    80854.416    80907.546    75.836778    75.836778    75.836778    436153.75    -9122.635    12076.338 
   35800    7098.2129    7188.0606    81534.901    80677.666    75.778093    75.778093    75.778093       435142   -9237.6752    11760.634 
   35900    7131.7566    7179.7452    83381.165    81002.099    75.724783    75.724783    75.724783     434224.3   -9287.7693    11685.011 
   36000    7107.8753    7165.3277    82647.571    81291.953    75.645457    75.645457    75.645457     432861.1   -9260.4302     11674.02 
   36100    7072.1781    7156.3766    83146.039    81630.875    75.729451    75.729451    75.729451     434304.6   -9177.8303    11540.632 
   36200    7071.7332    7146.9066    80131.687    81670.124    75.654104    75.654104    75.654104    433009.55   -9203.0987    11713.373 
   36300    7053.8567    7132.0686    79288.912    81647.549    75.786925    75.786925    75.786925    435294.17    -9269.427    11473.494 
   36400    7072.6806    7118.1123    81478.084    81505.247    75.706363    75.706363    75.706363    433907.49   -9275.9219    11461.744 
   36500    7044.6075    7105.1518    82666.391     81748.25    75.575452    75.575452    75.575452    431660.46   -9322.6346    11368.119 
   36600    7024.3981    7091.9748    80627.687    81575.685    75.626723    75.626723    75.626723    432539.57   -9359.4374    11345.643 
   36700    7049.4981    7072.6797    81537.741    81644.018    75.693675    75.693675    75.693675    433689.37   -9267.1081    11439.416 
   36800    7013.8683    7064.2453    80022.471    81492.775    75.632507    75.632507    75.632507    432638.82    -9383.161     11254.03 
   36900     7016.601    7052.7297    78502.247    81004.883    75.650952    75.650952    75.650952    432955.44   -9336.6719    11331.827 
   37000    6996.2691    7041.5691    79103.782    80650.504    75.539734    75.539734    75.539734    431048.72   -9422.5497    11208.443 
   37100    6978.5736    7032.2086    79865.754    80322.475     75.54518     75.54518     75.54518    431141.94   -9533.8257    11060.673 
   37200    6962.7181    7021.3071     79755.18    80284.825    75.607194    75.607194    75.607194    432204.57   -9470.7526    10953.959 
   37300      6982.84    7014.2054    79034.006    80259.334    75.567714    75.567714    75.567714    431527.87   -9589.4778    10947.923 
   37400    6997.7784    7006.7152     77372.37    79848.763    75.624624    75.624624    75.624624    432503.56   -9576.9509    10997.016 
   37500    6985.6787    7000.8223    81218.643    79703.988    75.494023    75.494023    75.494023    430266.67   -9462.5382    11000.307 
   37600    7005.9375    6998.9763    78320.434    79473.263    75.443103    75.443103    75.443103    429396.62   -9602.7331    10956.998 
   37700    6929.4561    6986.9721    84042.561    79723.745    75.477275    75.477275    75.477275    429980.38   -9566.5539    10810.031 
   37800    6894.3163    6975.0169    76961.836    79417.681    75.667322    75.667322    75.667322    433236.56   -9565.7427    10710.942 
   37900     6903.981    6963.7549    76213.495    79188.806    75.475071    75.475071    75.475071    429942.71   -9718.0546    10606.984 
   38000    6881.1931    6952.2473    80656.241    79344.052    75.516869    75.516869    75.516869    430657.41   -9500.7644    10704.583 
   38100     6813.845    6935.7744    77684.473    79125.924    75.433094    75.433094    75.433094    429225.75   -9681.1675    10363.269 
   38200    6859.5391    6925.4565     76900.47    78840.453    75.483645    75.483645    75.483645    430089.25   -9798.1901    10420.766 
   38300    6869.3584    6914.1084    80330.887    78970.141    75.487976    75.487976    75.487976    430163.29   -9708.8018    10533.918 
   38400    6803.6108    6894.6916    78354.491    79068.353    75.514608    75.514608    75.514608    430618.73   -9559.4794    10460.492 
   38500    6766.4965    6872.7734    79163.495    78862.838    75.462443    75.462443    75.462443    429726.95   -9750.9327    10269.267 
   38600    6831.8047    6855.3601     79807.61    79011.556    75.357506    75.357506    75.357506    427936.71    -9697.572    10380.735 
   38700    6768.1741    6839.2319    78366.941    78443.994     75.45864     75.45864     75.45864    429661.98   -9736.4453    10250.263 
   38800    6783.0503    6828.1053    79945.507    78742.361    75.405509    75.405509    75.405509    428755.03   -9720.4816    10265.508 
   38900    6796.2955    6817.3367    76525.574    78773.569    75.398007    75.398007    75.398007    428627.07   -9858.9619    10115.125 
   39000    6819.3374    6811.1512    79101.063    78618.051    75.369305    75.369305    75.369305    428137.76   -9863.8691    10118.349 
   39100    6756.4941    6805.4161    79920.133    78841.617    75.362708    75.362708    75.362708    428025.34   -9993.8469    9956.9635 
   39200    6757.4888    6795.2111    80149.879    79166.558    75.383147    75.383147    75.383147    428373.69   -9841.8852    10051.185 
   39300    6702.7344    6778.5487    77943.138    78927.783    75.356105    75.356105    75.356105    427912.86   -9779.2978    10014.061 
   39400    6727.2837     6770.916    76935.758     78785.91    75.199119    75.199119    75.199119    425244.05   -9843.5331    9942.7219 
   39500    6677.8831    6762.0546    79434.497     78813.01    75.242923    75.242923    75.242923    425987.61   -9842.7763    9783.9187 
   39600    6676.9263    6746.5668    78039.032    78636.152    75.226117    75.226117    75.226117    425702.24   -9939.0005    9723.3292 
   39700    6632.6144    6733.0108    81467.837    78946.242     75.26103     75.26103     75.26103    426295.23   -9748.2789     9823.003 
   39800    6640.2735    6718.7331    79373.816    78889.073    75.279903    75.279903    75.279903    426616.01    -9973.422    9628.6823 
   39900     6622.224     6701.326    76001.113    78836.627     75.30737     75.30737     75.30737    427083.16   -9901.1747    9629.5535 
   40000    6594.4737    6678.8396    76892.314    78615.752    75.258814    75.258814    75.258814    426257.58   -10014.444    9443.6725 
   40100    6625.2187    6665.7121    77070.227    78330.761    75.267406    75.267406    75.267406    426403.58   -10134.494      9368.37 
   40200    6601.4835    6650.1115    76953.562    78011.129    75.265705    75.265705    75.265705    426374.67    -9963.578    9413.8418 
   40300    6605.2763    6640.3657    76169.836    77833.799    75.240272    75.240272    75.240272    425942.59   -10183.957    9275.2257 
   40400    6607.2435    6628.3617    75377.812    77678.005    75.203458    75.203458    75.203458    425317.68   -10170.463    9285.1499 
   40500    6574.6754    6618.0409     76505.02    77385.057    75.129247    75.129247    75.129247     424059.8   -10201.057    9300.5236 
   40600    6557.0298    6606.0513    74690.475    77050.201    75.177255    75.177255    75.177255    424873.25   -10144.176    9281.5487 
   40700     6563.248    6599.1146    78433.095    76746.727    75.193406    75.193406    75.193406    425147.16   -10114.937    9188.3216 
   40800    6574.4314    6592.5304    76792.115    76488.557    75.152731    75.152731    75.152731     424457.6   -10026.672    9333.2209 
   40900    6554.6231    6585.7703    80015.083    76889.954    75.120751    75.120751    75.120751    423915.95   -10319.633    8978.7727 
   41000    6520.9283    6578.4158    79171.629    77117.885    75.103344    75.103344    75.103344    423621.33   -10097.378    9121.0865 
   41100    6521.6339    6568.0573    75389.341    76949.797    75.108565    75.108565    75.108565    423709.69   -10242.398    9094.4427 
   41200    6501.1099      6558.02    77433.111    76997.752    75.080891    75.080891    75.080891    423241.51   -10240.268    8903.9406 
   41300    6453.9542    6542.8878    74508.111    76831.579    75.048783    75.048783    75.048783    422698.75   -10339.178    8784.1923 
   41400    6507.9095    6532.9544    75886.134    76882.411    75.063963    75.063963    75.063963    422955.29   -10243.476    8957.0903 
   41500    6406.8566    6516.1725    77870.796    77018.989    75.049521    75.049521    75.049521    422711.21   -10058.462     8921.038 
[...]
  367400    298.23469    299.76596   -1970.1765   -1990.2845    84.318049    84.318049    84.318049    599461.99   -24601.375   -23596.895 
  367500    299.91803    299.70766   -2112.3028   -2026.0051    84.319445    84.319445    84.319445    599491.76   -24595.161   -23587.931 
  367600    300.11885    299.65323   -1856.6444   -2017.3539    84.348094    84.348094    84.348094    600103.03   -24595.778   -23589.523 
  367700    299.00538    299.60882   -1874.6668   -2014.0292     84.35504     84.35504     84.35504    600251.31   -24592.348    -23583.77 
  367800    298.16555    299.52262   -2186.8084    -2033.211      84.3241      84.3241      84.3241    599591.06   -24591.895     -23590.7 
  367900    301.81041    299.75338   -1956.0083   -2016.8081    84.249984    84.249984    84.249984    598011.42    -24600.71   -23587.116 
  368000    299.45371    299.73279    -2131.456   -2015.4972    84.238311    84.238311    84.238311    597762.89   -24598.479   -23589.078 
  368100    299.53252    299.80181   -1887.6389   -2000.5539    84.412292    84.412292    84.412292    601474.31   -24594.763   -23588.778 
  368200    299.05813    299.73488   -2049.2219   -2011.3849    84.366847    84.366847    84.366847    600503.37   -24596.196   -23588.783 
  368300    300.55383    299.58511   -2238.8538   -2026.3778    84.442409    84.442409    84.442409    602118.33   -24594.823    -23591.47 
  368400    301.48807    299.91045    -2110.629    -2040.423    84.461524    84.461524    84.461524    602527.32   -24597.427    -23594.11 
  368500    299.26257     299.8449   -1889.5138   -2018.1441    84.437988    84.437988    84.437988    602023.76   -24599.001   -23593.424 
  368600    300.54755    299.88777   -2065.7693   -2039.0566    84.455702    84.455702    84.455702    602402.73   -24597.401   -23586.779 
  368700    300.11002    299.99824   -2256.2944   -2077.2194    84.538874    84.538874    84.538874    604184.21   -24594.333   -23591.225 
  368800    300.59288    300.24097   -2179.3672   -2076.4753    84.523766    84.523766    84.523766    603860.36   -24596.968   -23590.228 
  368900     300.2986    300.08979   -2071.3989   -2088.0143    84.519053    84.519053    84.519053    603759.35   -24595.166   -23589.587 
  369000    301.03484     300.2479     -1799.83   -2054.8517    84.513399    84.513399    84.513399    603638.19   -24599.312   -23591.591 
  369100    297.26838    300.02149    -2093.125   -2075.4003    84.551874    84.551874    84.551874    604462.98   -24591.536   -23586.257 
  369200    300.03546    300.11922    -2007.751   -2071.2532    84.605053    84.605053    84.605053    605604.25   -24596.605   -23588.046 
  369300    301.71926    300.23576   -2116.5191   -2059.0198    84.611942    84.611942    84.611942    605752.18   -24595.159   -23584.292 
  369400    301.85227    300.27218   -1995.9075   -2047.5476    84.636798    84.636798    84.636798     606286.2   -24593.533   -23583.063 
  369500    301.04897    300.45082   -1961.3272    -2054.729    84.630195    84.630195    84.630195     606144.3   -24594.078   -23582.547 
  369600     298.9762    300.29369   -2012.3235   -2049.3844    84.629879    84.629879    84.629879    606137.52     -24597.4   -23592.669 
  369700    302.40561    300.52324   -1686.8507     -1992.44    84.633409    84.633409    84.633409    606213.35    -24601.12   -23588.423 
  369800    301.08455    300.57241    -1957.828   -1970.2861    84.664834    84.664834    84.664834    606888.88   -24603.301   -23594.506 
  369900    299.47055    300.48961   -2016.1153   -1964.7577    84.718232    84.718232    84.718232     608037.9   -24598.617   -23591.549 
  370000    298.69381     300.2555   -1914.2109   -1976.1958    84.807822    84.807822    84.807822    609968.95   -24596.055   -23589.287 
  370100     302.0252    300.73119   -1723.2689   -1939.2102    84.799891    84.799891    84.799891    609797.83   -24608.722    -23591.97 
  370200    298.53205    300.58085   -1906.1373   -1929.0488    84.818284    84.818284    84.818284    610194.71   -24597.309   -23590.982 
  370300    301.91197    300.60012   -1917.2703    -1909.124    84.845346    84.845346    84.845346    610778.97   -24594.963   -23579.406 
  370400    298.32293    300.24718   -1981.4073   -1907.6739     84.82267     84.82267     84.82267    610289.39   -24592.473   -23585.211 
  370500    299.77665    300.11995   -1877.4506   -1899.2863    84.816535    84.816535    84.816535    610156.97   -24595.374   -23588.397 
  370600    298.39845    300.06218   -2020.9011    -1900.144    84.751738    84.751738    84.751738    608759.62   -24592.972   -23593.738 
  370700    299.16338    299.73795   -2179.1264   -1949.3716    84.737819    84.737819    84.737819    608459.74   -24593.772   -23590.227 
  370800    298.63115    299.49261   -1989.8825   -1952.5771    84.773948    84.773948    84.773948    609238.35   -24594.479   -23587.228 
  370900     300.5929    299.60485   -1959.4693   -1946.9125    84.864542    84.864542    84.864542    611193.63   -24594.105   -23587.538 
  371000    299.24082    299.65955   -2097.9175   -1965.2831    84.849329    84.849329    84.849329    610864.98   -24600.049   -23590.266 
  371100    300.29685    299.48672   -1871.7491   -1980.1311    84.902014    84.902014    84.902014    612003.59   -24597.329   -23593.393 
  371200    299.98962    299.63247   -2099.9573   -1999.5131    84.919765    84.919765    84.919765    612387.55   -24594.555   -23584.171 
  371300    299.66277    299.40755   -2026.1594   -2010.4021    84.975968    84.975968    84.975968    613604.26   -24595.152   -23584.941 
  371400    299.01247    299.47651   -2258.7042   -2038.1317    84.993707    84.993707    84.993707    613988.61   -24592.466    -23583.01 
  371500    300.56432    299.55527   -2041.5508   -2054.5418    84.939414    84.939414    84.939414    612812.73   -24597.538   -23583.763 
  371600    298.61618    299.57705   -1908.4751   -2043.2992    84.945275    84.945275    84.945275    612939.59   -24594.237   -23586.286 
  371700    299.32914    299.59362   -1939.9841   -2019.3849     84.94377     84.94377     84.94377    612907.01   -24594.362   -23590.054 
  371800    299.09156    299.63966    -1768.561   -1997.2528    84.961876    84.961876    84.961876    613299.03   -24597.965   -23593.002 
  371900    298.29696    299.41007   -1843.4562   -1985.6515    84.956034    84.956034    84.956034    613172.52   -24595.155   -23592.659 
  372000    301.80223    299.66621   -2098.2349   -1985.6832    84.930086    84.930086    84.930086    612610.86   -24593.622   -23576.792 
  372100    297.75947    299.41247   -2110.8594   -2009.5942    84.927637    84.927637    84.927637    612557.87   -24596.723   -23594.946 
  372200    299.64509    299.37802   -2026.8436   -2002.2829     84.99217     84.99217     84.99217    613955.29    -24595.66   -23585.491 
  372300    300.69886    299.48163   -1849.6548   -1984.6324      84.9579      84.9579      84.9579    613212.94   -24589.535   -23579.062 
  372400    297.15837    299.29622   -2109.6408   -1969.7261    84.888015    84.888015    84.888015    611700.92   -24596.259   -23593.391 
  372500    298.87489    299.12727    -2223.386   -1987.9096    84.853605    84.853605    84.853605    610957.36   -24598.302    -23595.32 
  372600    298.67927    299.13358   -2038.0003   -2000.8621    84.837001    84.837001    84.837001    610598.76   -24592.481   -23591.107 
  372700    302.28246    299.42892   -1815.4582   -1988.4095    84.834693    84.834693    84.834693    610548.93   -24594.018   -23580.543 
  372800    301.14495    299.63425   -2216.9118   -2033.2446    84.907587    84.907587    84.907587    612124.13   -24592.258   -23584.214 
  372900    299.02626    299.70718   -1971.4817   -2046.0472     84.94856     84.94856     84.94856    613010.72   -24591.851   -23587.654 
  373000    299.43124    299.47008   -1843.4473   -2020.5684    84.940267    84.940267    84.940267    612831.21   -24592.836   -23589.114 
  373100    299.75901    299.67004   -2104.7502   -2019.9575    84.871954    84.871954    84.871954    611353.77   -24594.365   -23587.321 
  373200    300.03753    299.70928   -2250.2556   -2042.2987    84.918113    84.918113    84.918113     612351.8   -24599.217   -23589.943 
  373300    301.70702     299.8101   -1931.7789   -2050.5111    84.882273    84.882273    84.882273    611576.81   -24599.988   -23592.841 
  373400    299.63984    300.05825   -1949.2382   -2034.4708    84.923644    84.923644    84.923644    612471.48   -24592.311   -23588.557 
  373500    299.07533    300.07829   -1908.4022   -2002.9724    84.860645    84.860645    84.860645    611109.43   -24598.338   -23589.344 
  373600    302.21828    300.43219   -2234.0639   -2022.5788    84.959621    84.959621    84.959621     613250.2   -24593.118   -23581.829 
  373700    299.59183    300.16313   -2170.7757   -2058.1106    84.978621    84.978621    84.978621    613661.74   -24593.709   -23586.064 
  373800    299.45517    299.99415   -1940.6722   -2030.4866    84.910563    84.910563    84.910563     612188.5   -24591.319   -23587.901 
  373900    301.34122    300.22564   -1988.3617   -2032.1746    84.927309    84.927309    84.927309    612550.76   -24595.258   -23585.862 
  374000    297.97497    300.08002    -1956.393   -2043.4692    85.008925    85.008925    85.008925    614318.48   -24587.382    -23585.32 
  374100     297.6561    299.86973   -2051.4483    -2038.139    84.954233    84.954233    84.954233    613133.53   -24592.166   -23590.222 
  374200    301.66307    300.03228   -1974.2813   -2010.5416    84.881567    84.881567    84.881567    611561.55   -24596.906   -23584.103 
  374300    298.47573    299.70915    -1912.134   -2008.5771    84.911306    84.911306    84.911306    612204.57   -24591.497   -23589.442 
  374400    301.45186    299.89035    -2101.429   -2023.7961    84.909762    84.909762    84.909762    612171.17   -24589.991   -23579.703 
  374500    300.77504    300.06032   -1926.3618   -2025.5921    84.912345    84.912345    84.912345    612227.03    -24594.05   -23584.988 
  374600    300.33597    299.87209   -1953.5982   -1997.5455    84.872922    84.872922    84.872922    611374.69   -24594.133   -23588.586 
  374700    300.55746    299.96866   -2220.3186   -2002.4998    84.821832    84.821832    84.821832    610271.31   -24592.697   -23589.941 
  374800    302.40394    300.26353    -2112.172   -2019.6498    84.773357    84.773357    84.773357     609225.6   -24592.542   -23581.007 
  374900    299.62087     300.0915   -2162.5514   -2037.0688    84.838571    84.838571    84.838571    610632.66   -24599.109    -23590.25 
  375000    300.93504    300.38751   -2052.0654    -2046.636    84.867971    84.867971    84.867971    611267.71   -24596.242   -23587.137 
  375100    298.44559    300.46646   -2039.1258   -2045.4038    84.815189    84.815189    84.815189    610127.92    -24599.09   -23597.504 
  375200     298.3562    300.13577   -1985.4617   -2046.5218    84.898008    84.898008    84.898008    611916.97   -24597.499   -23590.938 
  375300    299.21561    300.20976   -2214.2771   -2076.7361    84.924656    84.924656    84.924656    612493.36   -24590.081   -23587.708 
  375400    300.84005    300.14858   -2041.8798   -2070.7812    84.918515    84.918515    84.918515     612360.5   -24595.109   -23585.464 
  375500    298.94756    299.96583   -1908.2663   -2068.9716    84.857969    84.857969    84.857969    611051.61   -24586.902   -23579.363 
  375600    299.26712    299.85894   -2075.8085   -2081.1927    84.832075    84.832075    84.832075    610492.42   -24593.332   -23586.579 
  375700      300.704     299.8736   -1932.1819    -2052.379    84.851406    84.851406    84.851406    610909.84   -24591.058   -23581.528 
  375800    300.60883    299.69409   -1887.6496   -2029.9267    84.880332    84.880332    84.880332    611534.85   -24584.541   -23573.875 
  375900    300.69997      299.802   -2034.9785   -2017.1695    84.813147    84.813147    84.813147    610083.86   -24593.104   -23581.299 
  376000    297.80552    299.48904   -1958.7492   -2007.8378    84.854534    84.854534    84.854534    610977.41   -24585.862    -23587.62 
  376100    299.95596    299.64008   -1677.7064   -1971.6959    84.807022    84.807022    84.807022    609951.68   -24592.246   -23582.553 
  376200    301.60486    299.96495   -1918.3117   -1964.9809    84.825086    84.825086    84.825086    610341.53    -24590.81   -23582.141 
  376300    298.08596    299.85198   -1989.2482    -1942.478    84.805627    84.805627    84.805627    609921.58   -24594.607   -23591.263 
  376400    299.04466    299.67244   -1993.3466   -1937.6247    84.833653    84.833653    84.833653    610526.49   -24594.959   -23592.591 
  376500    301.49263    299.92695   -1977.0301   -1944.5011    84.835556    84.835556    84.835556    610567.56   -24598.447   -23583.497 
  376600    301.24513    300.12475   -1670.1156   -1903.9318    84.843014    84.843014    84.843014    610728.61    -24601.17   -23589.188 
  376700    300.22069    300.07642   -2158.9196   -1926.6055     84.91815     84.91815     84.91815     612352.6    -24595.85   -23585.356 
  376800    300.87811    300.10335    -2276.916   -1965.5322     84.90019     84.90019     84.90019    611964.15   -24597.276   -23586.308 
  376900    299.16119    299.94947   -2081.9847   -1970.2328    84.875726    84.875726    84.875726     611435.3   -24596.468   -23587.448 
  377000    297.59314    299.92823   -2002.2486   -1974.5827    84.863162    84.863162    84.863162     611163.8   -24593.971    -23593.84 
  377100    299.84565     299.9172   -1865.2539   -1993.3375    84.860833    84.860833    84.860833    611113.49   -24599.751   -23591.906 
  377200    301.31614    299.88833   -2151.6972    -2016.676    84.892235    84.892235    84.892235    611792.15   -24596.218   -23581.958 
  377300    300.01427    300.08116   -2045.3955   -2022.2908    84.924191    84.924191    84.924191    612483.31     -24596.1    -23589.92 
  377400    296.72704     299.8494   -1892.6152   -2012.2176    84.855639    84.855639    84.855639    611001.28   -24590.692    -23593.18 
  377500    299.74356    299.67449    -1944.435   -2008.9581    84.839251    84.839251    84.839251    610647.36   -24593.651   -23590.949 
  377600    302.17424     299.7674   -2015.2017   -2043.4667    84.893917    84.893917    84.893917    611828.51   -24592.004   -23579.885 
  377700    301.03655    299.84899   -2076.1102   -2035.1858    84.917934    84.917934    84.917934    612347.94   -24593.442   -23584.235 
  377800    299.96169    299.75735   -2115.2596   -2019.0202    84.981656    84.981656    84.981656    613727.47   -24590.494   -23577.912 
  377900    300.21301    299.86253   -1767.3667   -1987.5583    84.889242    84.889242    84.889242    611727.45    -24590.29   -23580.056 
  378000    300.46981     300.1502   -2087.2068   -1996.0542    84.949283    84.949283    84.949283    613026.36   -24591.455   -23584.291 
  378100    297.23114    299.88875   -2383.9991   -2047.9287     84.91523     84.91523     84.91523    612289.45    -24599.72   -23598.781 
  378200    298.63346    299.62048   -1849.0406    -2017.663    84.884916    84.884916    84.884916    611633.92   -24594.652   -23589.946 
  378300    299.47681    299.56673   -2041.1681   -2017.2403    84.897119    84.897119    84.897119    611897.75   -24595.149   -23586.197 
  378400    299.90714    299.88474   -2146.7465   -2042.6534    84.872564    84.872564    84.872564    611366.97   -24593.736   -23588.782 
  378500    301.62099    300.07248   -2012.5178   -2049.4617    84.870775    84.870775    84.870775     611328.3   -24596.058   -23582.883 
  378600    300.78676    299.93374   -2020.9904   -2050.0406    84.850565    84.850565    84.850565    610891.68   -24593.604     -23578.8 
  378700    300.17112    299.84719   -2099.1744    -2052.347    84.847016    84.847016    84.847016    610815.04   -24598.278   -23588.834 
  378800    298.42275     299.6933   -1851.1238   -2025.9334    84.903705    84.903705    84.903705    612040.16   -24595.173   -23591.164 
  378900    300.20162    299.69216   -1688.6508   -2018.0618    84.877843    84.877843    84.877843    611481.05   -24593.824   -23588.342 
  379000    298.60397    299.50558   -2137.6489    -2023.106    84.971021    84.971021    84.971021    613497.09   -24592.745   -23588.259 
  379100    301.68887    299.95135   -2032.5956   -1987.9657    84.942749    84.942749    84.942749    612884.92   -24591.709   -23576.207 
  379200    299.00743    299.98875   -2231.6264   -2026.2243    84.934404    84.934404    84.934404    612704.31   -24594.749   -23589.819 
  379300    300.62981    300.10405   -2020.0673   -2024.1142    84.900218    84.900218    84.900218    611964.77   -24595.399   -23588.543 
  379400    297.33413    299.84675   -2216.1768   -2031.0572    84.900802    84.900802    84.900802    611977.38   -24591.638    -23584.02 
  379500    301.09021    299.79367   -2022.6864   -2032.0741    84.896659    84.896659    84.896659     611887.8   -24598.955   -23585.359 
  379600     300.0941     299.7244   -2183.3753   -2048.3126    84.884294    84.884294    84.884294    611620.49   -24596.878   -23585.159 
  379700    299.74213     299.6815   -1873.0925   -2025.7044    84.874293    84.874293    84.874293    611404.32   -24590.655   -23584.465 
  379800    299.45809    299.78504   -2194.9617   -2060.0882    84.917274    84.917274    84.917274    612333.65    -24594.21   -23584.759 
  379900    299.17779    299.68265   -2096.8711   -2100.9102    84.928163    84.928163    84.928163    612569.24   -24592.673   -23582.357 
  380000    300.15809    299.83807   -2096.2727   -2096.7726    84.888663    84.888663    84.888663    611714.94   -24591.854   -23579.287 
  380100     300.3739    299.70657   -2139.2956   -2107.4426    84.867306    84.867306    84.867306    611253.35   -24600.325   -23589.984 
  380200    299.47224    299.75305   -1930.6175   -2077.3417    84.837419    84.837419    84.837419     610607.8   -24590.903   -23583.882 
  380300    297.78729     299.4688   -2204.0973   -2095.7447    84.848026    84.848026    84.848026    610836.86   -24591.801   -23585.624 
  380308    300.52668    299.78805   -1909.9477   -2065.1218     84.84147     84.84147     84.84147    610695.27   -24598.355   -23586.827 
Loop time of 278.731 on 48 procs for 20000 steps with 17600 atoms

Pair  time (%) = 143.377 (51.4394)
Bond  time (%) = 2.12778 (0.763382)
Neigh time (%) = 0.720594 (0.258527)
Comm  time (%) = 107.705 (38.6413)
Outpt time (%) = 0.548786 (0.196887)
Other time (%) = 24.2509 (8.70046)

Nlocal:    366.667 ave 450 max 264 min
Histogram: 2 2 1 5 5 14 7 7 1 4
Nghost:    1133.94 ave 1253 max 1025 min
Histogram: 4 4 7 4 7 6 4 7 3 2
Neighs:    15813 ave 21245 max 9722 min
Histogram: 2 1 4 7 8 8 7 5 2 4

Total # of neighbors = 759022
Ave neighs/atom = 43.1262
Ave special neighs/atom = 2.04545
Neighbor list builds = 319
Dangerous builds = 0

#########################################################################
clear
next a
next p
next q
next r
next s
next t
next v
jump in.EtOCSMethyl# EtOCSMethyl -- network connectivity scan -- with bulk modulus simulation

# trial parameter
variable a index 1.1 1.2 1.3 2.1 2.2 2.3 3.1 3.2 3.3 
# EtOCSMethyl precursor start moleculeID parameter
variable p index 1 1 1 1 1 1 1 1 1 
# EtOCSMethyl precursor end moleculeID parameter
variable q index 2000 2000 2000 2000 2000 2000 2000 2000 2000 
# free O start atomID parameter
variable r index 10001 10001 10001 10001 10001 10001 10001 10001 10001 
# free O end atomID parameter
variable s index 16800 16800 16800 17600 17600 17600 18400 18400 18400 
# porogen start moleculeID parameter
variable t index 2001 2001 2001 2001 2001 2001 2001 2001 2001 
# porogen end moleculeID parameter
variable v index 2000 2000 2000 2000 2000 2000 2000 2000 2000 

log log_$a.lammps
log log_3.1.lammps
