
#########################################################################
dimension 3
atom_style full

# bonded potentials
bond_style harmonic
angle_style harmonic
dihedral_style hybrid opls class2

boundary p p p
units metal
neighbor 2 bin
neigh_modify check yes

timestep 0.001

read_data data.EtOCSMethyl_2000_$a
read_data data.EtOCSMethyl_2000_1.3
  1 = max bonds/atom
  1 = max angles/atom
  1 = max dihedrals/atom
  orthogonal box = (-4 -4 -4) to (136 136 136)
  3 by 4 by 4 processor grid
  16800 atoms
  8000 bonds
  6000 angles
  4000 dihedrals
  2 = max # of 1-2 neighbors
  2 = max # of 1-3 neighbors
  2 = max # of 1-4 neighbors
  4 = max # of special neighbors

#########################################################################
# number of EtOCSMethyl precursors (referenced by moleculeID)
group precursors molecule <> $p $q
group precursors molecule <> 1 $q
group precursors molecule <> 1 2000
10000 atoms in group precursors

# number of free O atoms (referenced by atomID)
group freeO id <> $r $s
group freeO id <> 10001 $s
group freeO id <> 10001 16800
6800 atoms in group freeO

# number of porogen molecules (referenced by moleculeID)
group porogen molecule <> $t $v
group porogen molecule <> 2001 $v
group porogen molecule <> 2001 2000
0 atoms in group porogen

group active union precursors freeO porogen
16800 atoms in group active
group activematrix union precursors freeO
16800 atoms in group activematrix
group inactive subtract all active
0 atoms in group inactive
delete_atoms group inactive
Deleted 0 atoms, new total = 16800

#########################################################################
#soft potential to push the atoms apart
pair_style soft 3
pair_coeff	* * 0 500 3

thermo_style custom step temp tave press pave lx ly lz vol epair etotal

fix 1		active nvt 6000 6000 0.0100 drag 2.00
thermo		1000
run		20000
Memory usage per processor = 2.39618 Mbytes
Step Temp T_ave Press P_ave Lx Ly Lz Volume E_pair TotEng 
       0            0            0   -2.8414386   -2.8414386          140          140          140      2744000            0    11.848978 
    1000    5995.3475    2997.6738    4356.9121    2177.0353          140          140          140      2744000    150.62495    15379.514 
    2000    6004.6672    4000.0049    4139.1361    2831.0689          140          140          140      2744000    101.94313    16358.585 
    3000    5970.0442    4492.5147    3685.6508    3044.7144          140          140          140      2744000    77.522131      16787.1 
    4000    6021.6504    4798.3419    3623.9325     3160.558          140          140          140      2744000    51.260757    17033.462 
    5000    6010.0686    5000.2963    3784.4653    3264.5426          140          140          140      2744000    67.070472    17090.176 
    6000    5992.6691    5142.0639    3582.5514    3309.9724          140          140          140      2744000    55.703878     17097.08 
    7000    5976.2282    5246.3344    3851.8099    3377.7021          140          140          140      2744000    51.643476    17112.744 
    8000    5972.0407    5326.9684    3366.1061    3376.4137          140          140          140      2744000    44.234486    17068.499 
    9000    6032.1266    5397.4842     3620.441    3400.8164          140          140          140      2744000    37.797084    17099.764 
   10000    6000.5262    5997.5369    3702.3025    3771.3308          140          140          140      2744000    44.287407    17124.096 
   11000    5991.5315    5997.1553    3899.8514    3725.6247          140          140          140      2744000    40.314444    17108.774 
   12000    6004.0934    5997.0979    3614.3174    3673.1428          140          140          140      2744000     39.25885     17121.75 
   13000    6013.0468    6001.3981    3635.4433    3668.1221          140          140          140      2744000    32.137396    17129.245 
   14000    5977.1162    5996.9447    3448.0105    3650.5299          140          140          140      2744000    32.002281    17116.438 
   15000     5988.626    5994.8005    3759.1418    3647.9975          140          140          140      2744000     37.04657    17125.822 
   16000    5981.0697    5993.6405    3703.3571    3660.0781          140          140          140      2744000    37.387342    17133.132 
   17000    5992.3741    5995.2551     4064.503    3681.3474          140          140          140      2744000    40.315533    17090.834 
   18000    5994.4056    5997.4916    3840.9619     3728.833          140          140          140      2744000    40.735326    17121.984 
   19000    6011.4784    5995.4268    3640.1033    3730.7992          140          140          140      2744000    29.723766    17112.273 
   20000    6003.6518    5995.7394    3644.1266    3724.9816          140          140          140      2744000    30.292205    17055.572 
Loop time of 40.7053 on 48 procs for 20000 steps with 16800 atoms

Pair  time (%) = 0.316098 (0.776553)
Bond  time (%) = 2.02241 (4.96841)
Neigh time (%) = 0.582057 (1.42993)
Comm  time (%) = 29.5814 (72.6721)
Outpt time (%) = 0.0273314 (0.0671445)
Other time (%) = 8.17603 (20.0859)

Nlocal:    350 ave 383 max 278 min
Histogram: 1 0 2 3 2 10 4 8 9 9
Nghost:    355.292 ave 419 max 299 min
Histogram: 2 4 5 8 7 8 8 4 0 2
Neighs:    346.417 ave 433 max 239 min
Histogram: 2 2 3 5 7 6 9 9 1 4

Total # of neighbors = 16628
Ave neighs/atom = 0.989762
Ave special neighs/atom = 2.14286
Neighbor list builds = 1737
Dangerous builds = 284

thermo		1
minimize		1e-4 10000 10000
Memory usage per processor = 2.87156 Mbytes
Step Temp T_ave Press P_ave Lx Ly Lz Volume E_pair TotEng 
   20000    6003.6518    5995.7394    3644.1266    3724.9816          140          140          140      2744000    30.292205    17055.572 
   20001    6003.6518    5996.9514    3305.0632    3665.5028          140          140          140      2744000  0.018206441    16296.655 
   20002    6003.6518    5996.9072    4410.8829    3745.1594          140          140          140      2744000    1.2601057    15086.892 
   20003    6003.6518    5995.9677    4743.0447    3855.9195          140          140          140      2744000   0.32921004    14762.347 
   20004    6003.6518    5998.6213     5005.274    4011.6458          140          140          140      2744000   0.10181339    14522.615 
   20005    6003.6518    6000.1239    5177.7385    4153.5055          140          140          140      2744000   0.54477803    14273.459 
   20006    6003.6518    6002.3821    5153.5847    4298.5283          140          140          140      2744000  0.058813347    14192.368 
   20007    6003.6518    6003.5098    5189.7972    4411.0577          140          140          140      2744000   0.28795986    14047.386 
   20008    6003.6518    6004.4345    5195.5687    4546.5184          140          140          140      2744000    0.2532892    13978.406 
   20009    6003.6518    6003.6518    5190.2626    4701.5343          140          140          140      2744000    0.0191364    13930.065 
   20010    6003.6518    6003.6518    5277.6402    4864.8856          140          140          140      2744000    2.6131198    13782.624 
   20011    6003.6518    6003.6518    5178.0314    5052.1825          140          140          140      2744000 0.00051657249     13763.64 
   20012    6003.6518    6003.6518    5290.2106    5140.1153          140          140          140      2744000    1.2474306    13688.857 
   20013    6003.6518    6003.6518    5217.6826     5187.579          140          140          140      2744000 0.0074737318    13675.027 
   20014    6003.6518    6003.6518    5345.9839      5221.65          140          140          140      2744000    6.7905785    13606.316 
   20015    6003.6518    6003.6518    5174.2928    5221.3055          140          140          140      2744000   0.10336595    13572.491 
   20016    6003.6518    6003.6518    5184.5167    5224.3987          140          140          140      2744000  0.019507382    13556.179 
   20017    6003.6518    6003.6518    5306.8863    5236.1076          140          140          140      2744000    2.4585357    13515.427 
   20018    6003.6518    6003.6518    5208.6345    5237.4142          140          140          140      2744000  0.041671635    13499.788 
   20019    6003.6518    6003.6518    5209.4579    5239.3337          140          140          140      2744000   0.33120451    13479.508 
   20020    6003.6518    6003.6518    5188.9886    5230.4685          140          140          140      2744000   0.11673774     13462.06 
   20021    6003.6518    6003.6518    5169.7618    5229.6416          140          140          140      2744000 0.0045124734    13453.149 
   20022    6003.6518    6003.6518    5235.7552     5224.196          140          140          140      2744000    1.1272873    13422.786 
   20023    6003.6518    6003.6518    5188.1513    5221.2429          140          140          140      2744000   0.50098144    13403.471 
   20024    6003.6518    6003.6518    5151.5111    5201.7956          140          140          140      2744000  0.024859537    13389.799 
   20025    6003.6518    6003.6518    5150.6961    5199.4359          140          140          140      2744000     0.108242    13379.765 
   20026    6003.6518    6003.6518    5142.6069     5195.245          140          140          140      2744000 0.0029229282    13376.383 
   20027    6003.6518    6003.6518    5270.9353    5191.6499          140          140          140      2744000    2.6173727    13339.343 
   20028    6003.6518    6003.6518    5140.5823    5184.8447          140          140          140      2744000   0.83277231    13314.972 
   20029    6003.6518    6003.6518    5084.1968    5172.3185          140          140          140      2744000   0.26443016    13302.071 
   20030    6003.6518    6003.6518    5079.4914    5161.3688          140          140          140      2744000 0.00071519108    13296.461 
   20031    6003.6518    6003.6518    5197.2569    5164.1183          140          140          140      2744000    1.3078394    13287.903 
   20032    6003.6518    6003.6518    5264.0536    5166.9482          140          140          140      2744000   0.99566491    13282.583 
   20033    6003.6518    6003.6518    5219.7858    5170.1116          140          140          140      2744000   0.17646926    13272.117 
   20034    6003.6518    6003.6518    5136.5303    5168.6135          140          140          140      2744000  0.018668097    13260.847 
   20035    6003.6518    6003.6518     5113.605    5164.9044          140          140          140      2744000 0.00038247534    13258.546 
   20036    6003.6518    6003.6518      5092.67    5159.9107          140          140          140      2744000    1.0687117    13245.952 
   20037    6003.6518    6003.6518    5055.9623    5138.4134          140          140          140      2744000    1.7955186     13239.55 
   20038    6003.6518    6003.6518    5067.5739    5131.1126          140          140          140      2744000    3.8316356    13227.987 
   20039    6003.6518    6003.6518    4906.1368    5113.3066          140          140          140      2744000    1.6234326    13214.105 
   20040    6003.6518    6003.6518    4852.6882    5090.6263          140          140          140      2744000   0.10175748    13205.784 
   20041    6003.6518    6003.6518    5063.1132    5077.2119          140          140          140      2744000   0.35315458    13196.729 
   20042    6003.6518    6003.6518     5122.344    5063.0409          140          140          140      2744000  0.026345814    13195.209 
   20043    6003.6518    6003.6518    5107.3926    5051.8016          140          140          140      2744000 0.0023261434    13192.877 
   20044    6003.6518    6003.6518     5029.388    5041.0874          140          140          140      2744000    0.3840342    13189.671 
   20045    6003.6518    6003.6518    4938.4938    5023.5763          140          140          140      2744000  0.055556133    13188.379 
   20046    6003.6518    6003.6518    5145.4197    5028.8512          140          140          140      2744000    1.5660385    13181.156 
   20047    6003.6518    6003.6518    5134.5718    5036.7122          140          140          140      2744000   0.44895499    13178.111 
   20048    6003.6518    6003.6518     5094.616    5039.4164          140          140          140      2744000 0.0056867683    13176.734 
   20049    6003.6518    6003.6518    5083.2768    5057.1304          140          140          140      2744000 0.0079376828    13174.484 
   20050    6003.6518    6003.6518    5144.8198    5086.3436          140          140          140      2744000   0.72078979    13172.178 
   20051    6003.6518    6003.6518    5100.9474     5090.127          140          140          140      2744000   0.34033004    13170.365 
   20052    6003.6518    6003.6518    5054.7146    5083.3641          140          140          140      2744000  0.014500302     13168.75 
   20053    6003.6518    6003.6518    5087.1566    5081.3405          140          140          140      2744000   0.10333733    13165.967 
   20054    6003.6518    6003.6518    5087.8416    5087.1858          140          140          140      2744000 0.0036209885    13165.555 
   20055    6003.6518    6003.6518    5100.4879    5103.3852          140          140          140      2744000   0.21411284    13163.643 
   20056    6003.6518    6003.6518    5069.3778     5095.781          140          140          140      2744000  0.042323515    13163.073 
   20057    6003.6518    6003.6518    5119.3177    5094.2556          140          140          140      2744000   0.51910071    13160.356 
   20058    6003.6518    6003.6518    5091.5639    5093.9504          140          140          140      2744000     0.201647    13159.435 
   20059    6003.6518    6003.6518    5068.9859    5092.5213          140          140          140      2744000 0.0093386105    13158.736 
   20060    6003.6518    6003.6518    5078.0564     5085.845          140          140          140      2744000 0.0049059696    13157.588 
   20061    6003.6518    6003.6518    5148.9842    5090.6487          140          140          140      2744000    0.4982166    13155.968 
   20062    6003.6518    6003.6518    5152.4293    5100.4201          140          140          140      2744000   0.52672758    13154.501 
   20063    6003.6518    6003.6518    5134.9861    5105.2031          140          140          140      2744000   0.29569354    13153.162 
   20064    6003.6518    6003.6518    5132.7412     5109.693          140          140          140      2744000   0.79616975    13151.541 
   20065    6003.6518    6003.6518    5102.6618    5109.9104          140          140          140      2744000   0.32734259    13149.808 
   20066    6003.6518    6003.6518    5058.2671    5108.7994          140          140          140      2744000  0.079424134    13148.347 
   20067    6003.6518    6003.6518     5050.164     5101.884          140          140          140      2744000 0.0012533148    13147.869 
   20068    6003.6518    6003.6518    5086.7067    5101.3983          140          140          140      2744000  0.024328337    13146.458 
   20069    6003.6518    6003.6518    5090.1588    5103.5156          140          140          140      2744000 0.00031699187    13145.714 
   20070    6003.6518    6003.6518    5069.2655    5102.6365          140          140          140      2744000 4.6346007e-05    13144.925 
   20071    6003.6518    6003.6518     5087.986    5096.5367          140          140          140      2744000   0.28028074    13143.798 
   20072    6003.6518    6003.6518    5076.6571    5088.9594          140          140          140      2744000   0.16002318    13143.164 
   20073    6003.6518    6003.6518    5067.7504    5082.2359          140          140          140      2744000   0.17872553    13142.681 
   20074    6003.6518    6003.6518    5081.4216    5077.1039          140          140          140      2744000   0.22336494    13141.789 
   20075    6003.6518    6003.6518    5083.0066    5075.1384          140          140          140      2744000    0.1900737    13141.175 
   20076    6003.6518    6003.6518    5092.7098    5078.5827          140          140          140      2744000   0.14743637    13140.708 
   20077    6003.6518    6003.6518    5103.8571     5083.952          140          140          140      2744000    0.1415895    13140.234 
   20078    6003.6518    6003.6518    5115.3628    5086.8176          140          140          140      2744000    0.2429652    13139.585 
   20079    6003.6518    6003.6518    5095.7918    5087.3809          140          140          140      2744000 0.0072645818    13138.911 
   20080    6003.6518    6003.6518    5067.8046    5087.2348          140          140          140      2744000  0.041595593    13138.159 
   20081    6003.6518    6003.6518    5048.9836    5083.3345          140          140          140      2744000   0.03633926    13137.766 
   20082    6003.6518    6003.6518    5070.0347    5082.6723          140          140          140      2744000   0.21244507    13136.812 
   20083    6003.6518    6003.6518    5066.0913    5082.5064          140          140          140      2744000   0.02759465    13136.433 
   20084    6003.6518    6003.6518    5097.9367    5084.1579          140          140          140      2744000  0.057286248     13135.82 
   20085    6003.6518    6003.6518    5107.7714    5086.6344          140          140          140      2744000  0.068360259    13135.492 
   20086    6003.6518    6003.6518      5107.62    5088.1254          140          140          140      2744000   0.18604328    13134.979 
   20087    6003.6518    6003.6518    5103.6633     5088.106          140          140          140      2744000   0.15379078    13134.345 
   20088    6003.6518    6003.6518    5080.7327     5084.643          140          140          140      2744000   0.11332387    13133.753 
   20089    6003.6518    6003.6518    5069.9227    5082.0561          140          140          140      2744000  0.065451514    13133.432 
   20090    6003.6518    6003.6518    5069.2771    5082.2033          140          140          140      2744000   0.10415628     13133.06 
   20091    6003.6518    6003.6518    5069.6534    5084.2703          140          140          140      2744000   0.07902647    13132.649 
   20092    6003.6518    6003.6518    5085.2808    5085.7949          140          140          140      2744000   0.12657059    13132.203 
   20093    6003.6518    6003.6518    5091.2152    5088.3073          140          140          140      2744000  0.087191859    13131.628 
   20094    6003.6518    6003.6518    5088.2942    5087.3431          140          140          140      2744000   0.12611401    13131.137 
   20095    6003.6518    6003.6518     5072.564    5083.8223          140          140          140      2744000  0.023765853    13130.538 
   20096    6003.6518    6003.6518    5072.8648    5080.3468          140          140          140      2744000  0.032890526    13129.705 
   20097    6003.6518    6003.6518    5065.3291    5076.5134          140          140          140      2744000 5.6294781e-05    13129.504 
   20098    6003.6518    6003.6518    5069.6988      5075.41          140          140          140      2744000 0.00060859058    13129.039 
   20099    6003.6518    6003.6518     5091.824    5077.6002          140          140          140      2744000  0.067496216    13127.895 
   20100    6003.6518    6003.6518    5087.1355     5079.386          140          140          140      2744000  0.037855497    13127.604 
   20101    6003.6518    6003.6518    5081.2842    5080.5491          140          140          140      2744000   0.12417587    13127.236 
   20102    6003.6518    6003.6518    5072.7894    5079.2999          140          140          140      2744000  0.010602738    13126.921 
   20103    6003.6518    6003.6518    5082.4942    5078.4278          140          140          140      2744000  0.092040783    13125.873 
   20104    6003.6518    6003.6518    5081.4761     5077.746          140          140          140      2744000   0.14489709    13125.464 
   20105    6003.6518    6003.6518    5079.2317    5078.4128          140          140          140      2744000  0.091355681    13124.629 
   20106    6003.6518    6003.6518    5074.9024    5078.6165          140          140          140      2744000  0.083302161    13124.343 
   20107    6003.6518    6003.6518     5075.856    5079.6692          140          140          140      2744000  0.024026368    13124.025 
   20108    6003.6518    6003.6518    5077.8121    5080.4806          140          140          140      2744000  0.026156555     13123.78 
   20109    6003.6518    6003.6518     5082.405    5079.5387          140          140          140      2744000  0.067396893    13123.338 
   20110    6003.6518    6003.6518     5074.385    5078.2636          140          140          140      2744000  0.046686862    13123.037 
   20111    6003.6518    6003.6518    5081.7683     5078.312          140          140          140      2744000  0.087937522    13122.718 
   20112    6003.6518    6003.6518    5075.5645    5078.5895          140          140          140      2744000  0.033076563    13122.544 
   20113    6003.6518    6003.6518    5079.3152    5078.2716          140          140          140      2744000  0.040061981    13122.154 
   20114    6003.6518    6003.6518    5084.3232    5078.5563          140          140          140      2744000  0.074453532    13121.781 
   20115    6003.6518    6003.6518    5079.4482     5078.578          140          140          140      2744000  0.056442651    13121.487 
   20116    6003.6518    6003.6518    5079.2043    5079.0082          140          140          140      2744000  0.078886874    13121.211 
   20117    6003.6518    6003.6518    5079.3443     5079.357          140          140          140      2744000   0.07297622    13120.813 
   20118    6003.6518    6003.6518    5083.5848    5079.9343          140          140          140      2744000   0.10883026    13120.485 
   20119    6003.6518    6003.6518    5075.9623      5079.29          140          140          140      2744000   0.04819739    13119.966 
   20120    6003.6518    6003.6518    5075.8339    5079.4349          140          140          140      2744000  0.053992634    13119.574 
   20121    6003.6518    6003.6518    5075.1021    5078.7683          140          140          140      2744000  0.052595484    13119.242 
   20122    6003.6518    6003.6518    5078.9491    5079.1067          140          140          140      2744000  0.040803768    13118.821 
   20123    6003.6518    6003.6518    5079.1619    5079.0914          140          140          140      2744000  0.066140017    13118.416 
   20124    6003.6518    6003.6518    5071.9037    5077.8495          140          140          140      2744000   0.03316777    13118.158 
   20125    6003.6518    6003.6518     5064.829    5076.3875          140          140          140      2744000 8.9540692e-05    13118.054 
   20126    6003.6518    6003.6518    5071.0169    5075.5688          140          140          140      2744000 0.0078570819    13117.718 
   20127    6003.6518    6003.6518    5077.6081    5075.3952          140          140          140      2744000  0.028028109    13117.332 
   20128    6003.6518    6003.6518    5078.8466    5074.9214          140          140          140      2744000   0.01172341    13116.944 
   20129    6003.6518    6003.6518    5075.9573    5074.9209          140          140          140      2744000  0.057940289    13116.697 
   20130    6003.6518    6003.6518    5068.0346    5074.1409          140          140          140      2744000 0.0024117309    13116.543 
   20131    6003.6518    6003.6518    5074.2428     5074.055          140          140          140      2744000  0.020424683    13115.996 
   20132    6003.6518    6003.6518    5073.6518    5073.5253          140          140          140      2744000 0.00089212224    13115.712 
   20133    6003.6518    6003.6518    5070.6286    5072.6719          140          140          140      2744000 0.00031529485    13115.191 
   20134    6003.6518    6003.6518    5069.8159    5072.4632          140          140          140      2744000 0.0056311031    13114.952 
   20135    6003.6518    6003.6518    5078.5966    5073.8399          140          140          140      2744000  0.050850551    13114.737 
   20136    6003.6518    6003.6518    5086.1856    5075.3568          140          140          140      2744000  0.083209762    13114.215 
   20137    6003.6518    6003.6518    5074.6764    5075.0636          140          140          140      2744000  0.092294978    13114.037 
   20138    6003.6518    6003.6518    5076.6109    5074.8401          140          140          140      2744000  0.082008903    13113.859 
   20139    6003.6518    6003.6518    5077.3886    5074.9832          140          140          140      2744000  0.070625913    13113.561 
   20140    6003.6518    6003.6518    5075.5342    5075.7331          140          140          140      2744000  0.014679837    13113.336 
   20141    6003.6518    6003.6518    5080.9153    5076.4004          140          140          140      2744000  0.052661886    13113.125 
   20142    6003.6518    6003.6518    5082.8699    5077.3222          140          140          140      2744000  0.030685151    13112.878 
   20143    6003.6518    6003.6518    5084.8438    5078.7437          140          140          140      2744000  0.068888852    13112.667 
   20144    6003.6518    6003.6518    5074.3719    5079.1993          140          140          140      2744000  0.023822977    13112.543 
   20145    6003.6518    6003.6518    5075.6021    5078.8999          140          140          140      2744000  0.020878272    13112.343 
   20146    6003.6518    6003.6518     5075.018    5077.7831          140          140          140      2744000  0.016107552    13112.223 
   20147    6003.6518    6003.6518     5080.272    5078.3427          140          140          140      2744000  0.069767886    13112.018 
   20148    6003.6518    6003.6518    5076.8553    5078.3671          140          140          140      2744000  0.013484641    13111.875 
   20149    6003.6518    6003.6518    5079.4274     5078.571          140          140          140      2744000  0.025283403    13111.657 
   20150    6003.6518    6003.6518    5078.2374    5078.8413          140          140          140      2744000  0.028704191    13111.424 
   20151    6003.6518    6003.6518    5076.8246    5078.4322          140          140          140      2744000  0.039006484    13111.187 
   20152    6003.6518    6003.6518     5074.156    5077.5608          140          140          140      2744000  0.014653803    13111.045 
   20153    6003.6518    6003.6518    5082.4968    5077.3261          140          140          140      2744000  0.045130621    13110.793 
   20154    6003.6518    6003.6518    5075.7829    5077.4672          140          140          140      2744000  0.017694996    13110.631 
   20155    6003.6518    6003.6518    5077.4354    5077.6506          140          140          140      2744000   0.02779836    13110.336 
   20156    6003.6518    6003.6518    5069.7841    5077.1272          140          140          140      2744000 0.0087501788     13110.21 
   20157    6003.6518    6003.6518    5074.9884    5076.5988          140          140          140      2744000  0.026742994     13109.98 
   20158    6003.6518    6003.6518    5071.5478    5076.0681          140          140          140      2744000 0.0094952391    13109.862 
   20159    6003.6518    6003.6518    5073.7468       5075.5          140          140          140      2744000  0.014960404    13109.536 
   20160    6003.6518    6003.6518    5071.8836    5074.8646          140          140          140      2744000   0.01835498    13109.386 
   20161    6003.6518    6003.6518    5075.2911    5074.7113          140          140          140      2744000  0.031260862    13109.073 
   20162    6003.6518    6003.6518    5070.8562    5074.3813          140          140          140      2744000 0.0056649758      13108.9 
   20163    6003.6518    6003.6518    5072.3475    5073.3664          140          140          140      2744000 0.0065411142    13108.668 
   20164    6003.6518    6003.6518    5072.5706    5073.0451          140          140          140      2744000  0.018619962    13108.401 
   20165    6003.6518    6003.6518    5076.0308    5072.9047          140          140          140      2744000  0.044193129    13108.166 
   20166    6003.6518    6003.6518    5072.3127    5073.1575          140          140          140      2744000  0.010916122    13108.057 
   20167    6003.6518    6003.6518    5073.3164    5072.9903          140          140          140      2744000  0.011158374    13107.915 
   20168    6003.6518    6003.6518    5076.2131    5073.4569          140          140          140      2744000  0.024425924    13107.717 
   20169    6003.6518    6003.6518    5080.7069    5074.1529          140          140          140      2744000  0.043661432    13107.518 
   20170    6003.6518    6003.6518    5074.2764    5074.3922          140          140          140      2744000  0.017536054    13107.379 
   20171    6003.6518    6003.6518    5073.0138    5074.1644          140          140          140      2744000  0.011550467    13107.274 
   20172    6003.6518    6003.6518    5072.4413    5074.3229          140          140          140      2744000 0.0073180114    13107.125 
   20173    6003.6518    6003.6518    5076.8094    5074.7691          140          140          140      2744000  0.018671477    13106.922 
   20174    6003.6518    6003.6518    5073.3893     5074.851          140          140          140      2744000  0.012941153    13106.848 
   20175    6003.6518    6003.6518    5075.5529    5074.8032          140          140          140      2744000  0.035318513    13106.747 
   20176    6003.6518    6003.6518     5072.846    5074.8565          140          140          140      2744000 0.0048183678    13106.647 
   20177    6003.6518    6003.6518    5075.0859    5075.0335          140          140          140      2744000  0.013322236    13106.495 
   20178    6003.6518    6003.6518    5077.1338    5075.1256          140          140          140      2744000  0.023175793    13106.384 
   20179    6003.6518    6003.6518    5078.1594    5074.8708          140          140          140      2744000  0.027243722    13106.259 
   20180    6003.6518    6003.6518    5073.0675    5074.7499          140          140          140      2744000  0.010933488    13106.159 
   20181    6003.6518    6003.6518    5075.6844     5075.017          140          140          140      2744000  0.019516215    13106.078 
   20182    6003.6518    6003.6518    5073.9659    5075.1695          140          140          140      2744000  0.015457075    13105.982 
   20183    6003.6518    6003.6518    5079.5854     5075.447          140          140          140      2744000  0.031505873    13105.863 
   20184    6003.6518    6003.6518    5075.7857    5075.6867          140          140          140      2744000  0.020757032     13105.77 
   20185    6003.6518    6003.6518    5072.3325    5075.3646          140          140          140      2744000 0.0095687059     13105.69 
   20186    6003.6518    6003.6518    5075.0813    5075.5882          140          140          140      2744000   0.01505894    13105.591 
   20187    6003.6518    6003.6518    5076.1755    5075.6971          140          140          140      2744000  0.017760049    13105.511 
   20188    6003.6518    6003.6518    5074.9261    5075.4764          140          140          140      2744000  0.018668401    13105.421 
   20189    6003.6518    6003.6518    5074.4541    5075.1058          140          140          140      2744000  0.011010317    13105.352 
   20190    6003.6518    6003.6518    5075.9506    5075.3941          140          140          140      2744000  0.019660485     13105.27 
   20191    6003.6518    6003.6518     5072.338    5075.0595          140          140          140      2744000  0.010856526    13105.181 
   20192    6003.6518    6003.6518    5075.0139    5075.1643          140          140          140      2744000  0.020552814    13105.084 
   20193    6003.6518    6003.6518    5074.2498    5074.6308          140          140          140      2744000 0.0096105163    13105.009 
   20194    6003.6518    6003.6518    5075.4256    5074.5948          140          140          140      2744000   0.01907872    13104.917 
   20195    6003.6518    6003.6518    5074.2401    5074.7855          140          140          140      2744000 0.0095986112    13104.858 
   20196    6003.6518    6003.6518    5077.4078    5075.0182          140          140          140      2744000  0.023355149    13104.794 
   20197    6003.6518    6003.6518    5074.2478    5074.8254          140          140          140      2744000   0.01156711    13104.719 
   20198    6003.6518    6003.6518    5074.7842    5074.8112          140          140          140      2744000   0.01580308    13104.645 
   20199    6003.6518    6003.6518    5073.5999    5074.7258          140          140          140      2744000  0.010312439    13104.579 
   20200    6003.6518    6003.6518    5074.1385    5074.5446          140          140          140      2744000  0.012664165    13104.525 
   20201    6003.6518    6003.6518    5073.1738    5074.6281          140          140          140      2744000  0.008085433    13104.444 
   20202    6003.6518    6003.6518    5075.9547    5074.7222          140          140          140      2744000  0.020429767    13104.372 
   20203    6003.6518    6003.6518    5072.9684    5074.5941          140          140          140      2744000 0.0095140226    13104.316 
   20204    6003.6518    6003.6518    5074.2298    5074.4745          140          140          140      2744000  0.012619748    13104.242 
   20205    6003.6518    6003.6518    5072.3332    5074.2838          140          140          140      2744000  0.010092186    13104.174 
   20206    6003.6518    6003.6518    5072.6042    5073.8035          140          140          140      2744000 0.0062688661    13104.105 
   20207    6003.6518    6003.6518    5075.3201    5073.9107          140          140          140      2744000  0.015178812    13104.041 
   20208    6003.6518    6003.6518    5074.5596    5073.8882          140          140          140      2744000   0.01163879    13103.977 
   20209    6003.6518    6003.6518    5075.4178      5074.07          140          140          140      2744000  0.017502311    13103.915 
   20210    6003.6518    6003.6518    5073.5519    5074.0114          140          140          140      2744000  0.011184579    13103.867 
   20211    6003.6518    6003.6518    5071.3118    5073.8252          140          140          140      2744000 0.0044326545    13103.809 
   20212    6003.6518    6003.6518    5074.3048    5073.6602          140          140          140      2744000  0.017961698     13103.72 
   20213    6003.6518    6003.6518    5074.0543    5073.7687          140          140          140      2744000  0.011059864    13103.671 
   20214    6003.6518    6003.6518    5075.2157    5073.8673          140          140          140      2744000  0.013712624    13103.597 
   20215    6003.6518    6003.6518    5071.8368    5073.8177          140          140          140      2744000 0.0054080086    13103.546 
   20216    6003.6518    6003.6518    5076.6994    5074.2272          140          140          140      2744000  0.017556319    13103.482 
   20217    6003.6518    6003.6518    5075.2734    5074.2225          140          140          140      2744000  0.012815238    13103.438 
   20218    6003.6518    6003.6518    5076.0285    5074.3694          140          140          140      2744000  0.014800153    13103.399 
   20219    6003.6518    6003.6518    5074.7126    5074.2989          140          140          140      2744000  0.011231448     13103.35 
   20220    6003.6518    6003.6518    5075.3773    5074.4815          140          140          140      2744000 0.0094794953    13103.308 
   20221    6003.6518    6003.6518    5074.7199    5074.8223          140          140          140      2744000 0.0093480445    13103.269 
   20222    6003.6518    6003.6518     5075.059    5074.8977          140          140          140      2744000  0.011731497    13103.224 
   20223    6003.6518    6003.6518    5075.5069     5075.043          140          140          140      2744000  0.010115647    13103.195 
   20224    6003.6518    6003.6518    5075.3898    5075.0604          140          140          140      2744000  0.010613328    13103.149 
   20225    6003.6518    6003.6518    5072.6736     5075.144          140          140          140      2744000 0.0091505953    13103.105 
   20226    6003.6518    6003.6518    5074.0612    5074.8802          140          140          140      2744000 0.0092991816    13103.066 
   20227    6003.6518    6003.6518    5074.7612     5074.829          140          140          140      2744000 0.0082760355    13103.026 
   20228    6003.6518    6003.6518    5072.6363    5074.4898          140          140          140      2744000 0.0089811291    13102.981 
   20229    6003.6518    6003.6518     5073.457    5074.3642          140          140          140      2744000 0.0071771932    13102.944 
   20230    6003.6518    6003.6518     5074.076    5074.2341          140          140          140      2744000 0.0081646358    13102.899 
   20231    6003.6518    6003.6518    5074.0963    5074.1717          140          140          140      2744000 0.0071389775    13102.874 
   20232    6003.6518    6003.6518    5074.1921     5074.085          140          140          140      2744000  0.010464219    13102.834 
   20233    6003.6518    6003.6518    5073.6607    5073.9004          140          140          140      2744000 0.0090668004    13102.803 
   20234    6003.6518    6003.6518    5073.9602    5073.7575          140          140          140      2744000 0.0096120875    13102.766 
   20235    6003.6518    6003.6518    5073.4106    5073.8312          140          140          140      2744000 0.0044187532    13102.731 
   20236    6003.6518    6003.6518    5074.4104    5073.8661          140          140          140      2744000 0.0046577662     13102.69 
   20237    6003.6518    6003.6518    5075.6147    5073.9514          140          140          140      2744000  0.011128664    13102.663 
   20238    6003.6518    6003.6518     5075.488    5074.2366          140          140          140      2744000 0.0085117114    13102.629 
   20239    6003.6518    6003.6518    5074.2722    5074.3181          140          140          140      2744000 0.0079216722    13102.605 
   20240    6003.6518    6003.6518    5073.6062    5074.2711          140          140          140      2744000 0.0071222965     13102.58 
   20241    6003.6518    6003.6518    5074.9825    5074.3598          140          140          140      2744000 0.0094761174    13102.549 
   20242    6003.6518    6003.6518    5073.4247     5074.283          140          140          140      2744000 0.0066368627     13102.52 
   20243    6003.6518    6003.6518    5072.7307      5074.19          140          140          140      2744000 0.0054408848    13102.491 
   20244    6003.6518    6003.6518    5074.3309    5074.2271          140          140          140      2744000 0.0084752172    13102.466 
   20245    6003.6518    6003.6518    5073.8771    5074.2737          140          140          140      2744000 0.0051004924    13102.436 
   20246    6003.6518    6003.6518    5073.9804    5074.2308          140          140          140      2744000  0.008220747    13102.411 
   20247    6003.6518    6003.6518     5074.823    5074.1516          140          140          140      2744000 0.0068248571    13102.383 
   20248    6003.6518    6003.6518    5073.1978    5073.9226          140          140          140      2744000 0.0050600898    13102.353 
   20249    6003.6518    6003.6518    5074.6924    5073.9646          140          140          140      2744000 0.0071622644    13102.334 
   20250    6003.6518    6003.6518    5073.3642    5073.9404          140          140          140      2744000 0.0067204959    13102.309 
   20251    6003.6518    6003.6518    5073.4528    5073.7874          140          140          140      2744000 0.0055688792    13102.289 
   20252    6003.6518    6003.6518    5074.6108     5073.906          140          140          140      2744000 0.0057750292    13102.271 
   20253    6003.6518    6003.6518    5073.6207     5073.995          140          140          140      2744000 0.0069777542    13102.239 
   20254    6003.6518    6003.6518    5073.6852    5073.9304          140          140          140      2744000 0.0037750586    13102.221 
   20255    6003.6518    6003.6518    5074.6571    5074.0084          140          140          140      2744000 0.0055927173    13102.202 
   20256    6003.6518    6003.6518    5074.3178    5074.0422          140          140          140      2744000 0.0072211561    13102.181 
   20257    6003.6518    6003.6518    5073.5823    5073.9181          140          140          140      2744000 0.0049254038    13102.162 
   20258    6003.6518    6003.6518    5074.1836    5074.0167          140          140          140      2744000 0.0071599344    13102.146 
   20259    6003.6518    6003.6518    5073.9996    5073.9474          140          140          140      2744000 0.0077091297    13102.126 
   20260    6003.6518    6003.6518    5073.2016    5073.9312          140          140          140      2744000 0.0063357046    13102.106 
   20261    6003.6518    6003.6518    5073.7444    5073.9603          140          140          140      2744000 0.0056333265    13102.085 
   20262    6003.6518    6003.6518    5073.4239    5073.8416          140          140          140      2744000 0.0050819462    13102.069 
   20263    6003.6518    6003.6518    5073.9838    5073.8779          140          140          140      2744000 0.0061538167    13102.049 
   20264    6003.6518    6003.6518    5074.8208    5073.9915          140          140          140      2744000 0.0066807322    13102.028 
   20265    6003.6518    6003.6518    5074.1973    5073.9455          140          140          140      2744000 0.0055457853    13102.007 
   20266    6003.6518    6003.6518    5073.5403    5073.8678          140          140          140      2744000 0.0034004706    13101.995 
   20267    6003.6518    6003.6518    5074.7831    5073.9878          140          140          140      2744000 0.0057406838    13101.978 
   20268    6003.6518    6003.6518    5073.2579    5073.8953          140          140          140      2744000 0.0038326447    13101.959 
   20269    6003.6518    6003.6518    5074.0426    5073.8996          140          140          140      2744000 0.0040244542    13101.945 
   20270    6003.6518    6003.6518    5073.8676    5073.9662          140          140          140      2744000 0.0043613172    13101.931 
   20271    6003.6518    6003.6518    5074.1967    5074.0114          140          140          140      2744000  0.004085553     13101.92 
   20272    6003.6518    6003.6518    5073.9038    5074.0594          140          140          140      2744000 0.0037067146    13101.907 
   20273    6003.6518    6003.6518    5073.7801     5074.039          140          140          140      2744000 0.0039406362    13101.888 
   20274    6003.6518    6003.6518    5074.2718    5073.9841          140          140          140      2744000 0.0043260646    13101.875 
   20275    6003.6518    6003.6518    5074.4361     5074.008          140          140          140      2744000 0.0044744633    13101.863 
   20276    6003.6518    6003.6518    5073.9412    5074.0481          140          140          140      2744000 0.0049883162    13101.848 
   20277    6003.6518    6003.6518    5073.2908    5073.8989          140          140          140      2744000 0.0030450223    13101.835 
   20278    6003.6518    6003.6518    5075.3851    5074.1116          140          140          140      2744000 0.0046780876    13101.821 
   20279    6003.6518    6003.6518    5074.9319    5074.2005          140          140          140      2744000 0.0057274073    13101.806 
   20280    6003.6518    6003.6518     5073.699    5074.1836          140          140          140      2744000 0.0052144051    13101.791 
   20281    6003.6518    6003.6518     5073.462    5074.1102          140          140          140      2744000 0.0030327712    13101.776 
   20282    6003.6518    6003.6518    5073.2315    5074.0429          140          140          140      2744000 0.0023628659    13101.766 
   20283    6003.6518    6003.6518    5074.4554    5074.1105          140          140          140      2744000 0.0047598734    13101.753 
   20284    6003.6518    6003.6518     5073.802    5074.0635          140          140          140      2744000 0.0022476298    13101.744 
   20285    6003.6518    6003.6518    5074.6452    5074.0844          140          140          140      2744000 0.0034817734     13101.73 
   20286    6003.6518    6003.6518    5073.9083    5074.0811          140          140          140      2744000 0.0038387646    13101.716 
   20287    6003.6518    6003.6518    5073.8621    5074.1382          140          140          140      2744000 0.0026344368    13101.705 
   20288    6003.6518    6003.6518    5073.7449    5073.9742          140          140          140      2744000 0.0024457519    13101.696 
   20289    6003.6518    6003.6518    5073.7515    5073.8562          140          140          140      2744000 0.0025446778    13101.685 
   20290    6003.6518    6003.6518    5073.9904    5073.8853          140          140          140      2744000 0.0024057649    13101.677 
   20291    6003.6518    6003.6518    5074.3506    5073.9742          140          140          140      2744000 0.0036178933    13101.669 
   20292    6003.6518    6003.6518    5074.1081    5074.0618          140          140          140      2744000 0.0028017559    13101.658 
   20293    6003.6518    6003.6518    5073.8151    5073.9978          140          140          140      2744000 0.0028128828    13101.649 
   20294    6003.6518    6003.6518    5074.1088    5074.0285          140          140          140      2744000 0.0031111881    13101.641 
   20295    6003.6518    6003.6518    5074.4731    5074.0113          140          140          140      2744000 0.0029600561    13101.634 
   20296    6003.6518    6003.6518    5074.1099    5074.0314          140          140          140      2744000 0.0025854133    13101.626 
   20297    6003.6518    6003.6518     5074.095    5074.0547          140          140          140      2744000 0.0029795127    13101.615 
   20298    6003.6518    6003.6518    5074.1634    5074.0966          140          140          140      2744000 0.0025230167    13101.608 
   20299    6003.6518    6003.6518    5074.1674    5074.1382          140          140          140      2744000 0.0026257037    13101.602 
   20300    6003.6518    6003.6518    5071.2359    5073.8627          140          140          140      2744000 3.409144e-06    13101.598 
Loop time of 5.17708 on 48 procs for 300 steps with 16800 atoms

Minimization stats:
  E initial, next-to-last, final = 4019 65.0248 65.0217
  Gradient 2-norm init/final= 654.274 0.815985
  Gradient inf-norm init/final= 45.0112 0.0728231
  Iterations = 300
  Force evaluations = 1938

Pair  time (%) = 0.0669257 (1.29273)
Bond  time (%) = 0.207669 (4.01132)
Neigh time (%) = 0.000338505 (0.00653853)
Comm  time (%) = 2.55636 (49.3784)
Outpt time (%) = 0.414416 (8.00482)
Other time (%) = 1.93137 (37.3062)

Nlocal:    350 ave 385 max 281 min
Histogram: 1 0 3 2 3 9 6 9 7 8
Nghost:    354.583 ave 414 max 300 min
Histogram: 2 4 6 6 8 7 6 6 1 2
Neighs:    344.312 ave 439 max 225 min
Histogram: 2 0 2 9 4 7 13 7 3 1

Total # of neighbors = 16527
Ave neighs/atom = 0.98375
Ave special neighs/atom = 2.14286
Neighbor list builds = 1
Dangerous builds = 0

#########################################################################
# simulated annealing to create structure
pair_style sw
pair_coeff * * OCS.sw Si O C

thermo		100

unfix		1
fix		1 active npt 9000 3000 0.0100 xyz 90000 60000 0.1000 drag 2.00
run		50000
Memory usage per processor = 2.401 Mbytes
Step Temp T_ave Press P_ave Lx Ly Lz Volume E_pair TotEng 
   20300    6003.6518    6003.6518    10852.532    5073.8627          140          140          140      2744000    3382.5408    16484.139 
   20400    9032.6555    6306.5522    85745.137    13140.941    80.203417    80.203417    80.203417    515915.55   -2399.5467    22054.809 
   20500     8995.743    6605.7613    89119.368    21545.467    77.346736    77.346736    77.346736    462728.21   -5093.5792    19805.029 
   20600    8904.9142    6895.8875    88790.134    29917.099    76.810423    76.810423    76.810423    453169.29   -6028.8754    18961.399 
   20700    8940.5101    7189.5734    89151.291    38324.817    76.467045    76.467045    76.467045     447118.8   -6419.5003    18651.681 
   20800    8895.5626    7478.7645    89794.951    46796.865    76.331749    76.331749    76.331749    444749.68   -6556.8409    18413.335 
   20900    8913.5101    7769.7503    90738.579    55363.312    76.096153    76.096153    76.096153    440644.25    -6652.465    18424.973 
   21000    8914.8076    8060.8659    90384.498    63894.352    76.149188    76.149188    76.149188    441566.21   -6602.2799    18450.454 
   21100    8972.9768    8357.7984    87378.578    72124.794    76.160763    76.160763    76.160763     441767.6   -6766.4039    18402.662 
   21200    8883.2196    8645.7551     91401.58    80757.535    76.112725    76.112725    76.112725     440932.2   -6822.9423    18056.087 
   21300    8885.6437    8933.9543    88502.964    89100.708    76.095552    76.095552    76.095552    440633.81   -6780.1719     18200.62 
   21400    8843.9575    8915.0845    89949.286    89521.123    76.152154    76.152154    76.152154    441617.81   -6621.5719    18270.527 
   21500    8946.9373     8910.204    87545.851    89363.771    76.130852    76.130852    76.130852    441247.31   -6840.9783    18341.714 
   21600    8869.3867    8906.6512    90768.561    89561.614    76.041993    76.041993    76.041993    439704.06   -6943.3895    18003.441 
   21700    8846.0769    8897.2079    88509.787    89497.464    76.073771    76.073771    76.073771    440255.55   -6960.2847    17904.653 
   21800    8819.7784    8889.6295    90040.185    89521.987     76.03806     76.03806     76.03806    439635.84   -6905.4947    17921.062 
   21900     8877.849    8886.0634    89615.888    89409.718    76.000012    76.000012    76.000012    438976.21   -6801.8226    18201.687 
   22000    8804.4012    8875.0227    91071.829    89478.451    75.996616    75.996616    75.996616    438917.36   -6829.4864    17923.413 
   22100     8751.393    8852.8643    90512.399    89791.833    75.888797    75.888797    75.888797     437051.9   -6744.6472     17911.25 
   22200    8721.6081    8836.7032    89481.881    89599.863    75.938731    75.938731    75.938731    437915.19   -6889.0297    17738.152 
   22300    8750.9369    8823.2325    92134.595    89963.026    75.973716    75.973716    75.973716    438520.71   -6865.3079    17849.728 
   22400    8738.3646    8812.6732    88177.739    89785.871    76.138818    76.138818    76.138818    441385.83     -6870.15    17777.525 
   22500    8720.6803    8790.0475    88877.073    89918.994    75.951554    75.951554    75.951554    438137.06   -6831.2543      17710.5 
   22600     8725.289    8775.6378    90941.712    89936.309    75.979273    75.979273    75.979273    438616.94   -6818.3904     17825.27 
   22700    8802.7904    8771.3091    89384.138    90023.744    75.922746    75.922746    75.922746     437638.7   -7042.4738    17775.108 
   22800    8707.6478     8760.096    86620.817    89681.807    75.918248    75.918248    75.918248    437560.93   -7099.4856     17359.81 
   22900     8752.881    8747.5992     84794.62     89199.68    76.019422    76.019422    76.019422    439312.62   -7044.4047    17493.939 
   23000    8703.1229    8737.4714    90969.397    89189.437    75.881321    75.881321    75.881321    436922.74    -6881.592    17510.772 
   23100     8694.007    8731.7328    90032.707    89141.468    75.889335    75.889335    75.889335    437061.18   -6871.5522    17656.973 
   23200    8724.4919    8732.0212    85117.957    88705.075    75.874547    75.874547    75.874547    436805.74   -7119.1164    17458.975 
   23300    8598.5715    8716.7846    90239.601    88515.576    75.805588    75.805588    75.805588    435615.85   -6851.4944    17417.595 
   23400    8685.1282     8711.461    90833.857    88781.188    75.868481    75.868481    75.868481    436700.99   -7010.7557    17408.671 
   23500     8598.745    8699.2675     87664.25    88659.906    75.807086    75.807086    75.807086    435641.66   -7038.7557    17243.786 
   23600    8667.8699    8693.5256    85118.593    88077.594    75.829374    75.829374    75.829374    436026.02   -7146.5108    17248.523 
   23700    8662.8499    8679.5315    89073.425    88046.522    75.880568    75.880568    75.880568    436909.74   -7091.2698     17266.65 
   23800    8574.5908    8666.2258    84343.336    87818.774    75.819152    75.819152    75.819152    435849.72   -7165.3542    17048.795 
   23900    8554.8023    8646.4179    89249.433    88264.256    75.873021    75.873021    75.873021    436779.39   -7030.4673    17068.358 
   24000    8566.0433      8632.71    86356.309    87802.947    75.951092    75.951092    75.951092    438129.06   -7102.4293    17077.714 
   24100    8543.9119    8617.7005    88477.665    87647.443    75.851438    75.851438    75.851438    436406.74   -7130.0608    16892.069 
   24200    8600.4652    8605.2978    87404.717    87876.119    75.877357    75.877357    75.877357    436854.28   -7153.4006    17065.696 
   24300    8449.5592    8590.3966     90301.41      87882.3    75.761601    75.761601    75.761601    434857.97   -7162.3099    16680.088 
   24400    8493.1427     8571.198    88593.164     87658.23     75.78995     75.78995     75.78995     435346.3   -7236.4266    16643.199 
   24500     8454.597    8556.7832    91322.271    88024.032    75.714806    75.714806    75.714806    434052.68   -7097.1109    16785.267 
   24600    8506.7907    8540.6753    86701.425    88182.316    75.717021    75.717021    75.717021    434090.77   -7195.0822    16724.954 
   24700    8485.0735    8522.8977    89371.737    88212.147      75.8468      75.8468      75.8468    436326.69   -7175.7531    16760.015 
   24800    8550.1317    8520.4518    85518.184    88329.632    75.816078    75.816078    75.816078     435796.7   -7171.4307    16847.221 
   24900    8499.3662    8514.9082    87330.994    88137.788    75.735893    75.735893    75.735893    434415.45   -7270.1911    16742.262 
   25000    8451.2703    8503.4309    87306.728     88232.83    75.795232    75.795232    75.795232    435437.33   -7313.6038    16567.255 
   25100    8382.0935     8487.249     86705.12    88055.575    75.675413    75.675413    75.675413    433375.54   -7364.3589    16404.669 
   25200     8428.667    8470.0692    89210.097    88236.113    75.645396    75.645396    75.645396    432860.05   -7323.0728    16424.284 
   25300    8444.8079    8469.5941    85596.252    87765.597    75.800474    75.800474    75.800474    435527.68   -7334.5648    16314.768 
   25400    8399.6487    8460.2447    85232.464    87429.527    75.816724    75.816724    75.816724    435807.85   -7226.4093    16463.323 
   25500    8366.1203     8451.397    86348.677    86932.168    75.745535    75.745535    75.745535    434581.38   -7372.9634    16195.075 
   25600    8389.6531    8439.6832    85456.929    86807.718    75.772371    75.772371    75.772371    435043.45   -7438.5726    16206.732 
   25700    8364.8007     8427.656     89538.48    86824.392    75.648011    75.648011    75.648011    432904.93   -7296.6588    16287.078 
   25800    8369.3581    8409.5786    88476.639    87120.238    75.694376    75.694376    75.694376    433701.41   -7337.0285    16259.409 
   25900    8364.6518    8396.1071    88277.524    87214.891     75.55238     75.55238     75.55238    431265.23   -7515.0717    15984.825 
   26000    8266.5689     8377.637      86456.5    87129.868    75.684068    75.684068    75.684068    433524.26   -7499.6614    15735.849 
   26100    8276.4871    8367.0764    87171.771    87176.533    75.553939    75.553939    75.553939    431291.93   -7478.5712    15748.291 
   26200    8298.5174    8354.0614    86895.747    86945.098    75.589473    75.589473    75.589473    431900.74   -7453.2562    15931.797 
   26300    8281.3404    8337.7147    88682.286    87253.702    75.607496    75.607496    75.607496    432209.76   -7385.9411    15942.657 
   26400     8265.844    8324.3342    84692.849     87199.74    75.623295    75.623295    75.623295    432480.76   -7496.3397    15809.555 
   26500    8313.0912    8319.0313    86798.679     87244.74    75.605584    75.605584    75.605584    432176.96   -7422.0019    16074.872 
   26600    8243.4835    8304.4143    87035.179    87402.565    75.593825    75.593825    75.593825    431975.35   -7605.8869    15714.944 
   26700    8233.3564    8291.2699    88797.414    87328.459    75.595379    75.595379    75.595379    432001.99   -7552.3463    15675.213 
   26800    8187.2686    8273.0609    81698.265    86650.622    75.482749    75.482749    75.482749    430073.94   -7621.5744    15534.364 
   26900    8163.6462    8252.9604    86761.518    86499.021    75.537922    75.537922    75.537922    431017.69   -7475.6533    15549.549 
   27000    8181.5892    8244.4624     86804.03    86533.774    75.506924    75.506924    75.506924    430487.28   -7664.0718    15422.702 
   27100    8169.5214    8233.7658    85595.544    86376.151    75.497512    75.497512    75.497512    430326.33    -7730.542    15357.028 
   27200    8160.3339    8219.9475    86402.329    86326.809    75.428024    75.428024    75.428024     429139.2   -7601.1528    15379.228 
   27300    8090.4272    8200.8562    81392.435    85597.824     75.52231     75.52231     75.52231    430750.51   -7625.9228    15329.041 
   27400    8130.2225     8187.294    84323.347    85560.874    75.472039    75.472039    75.472039     429890.9   -7615.3135    15346.663 
   27500    8089.6508      8164.95    84624.667    85343.473     75.41863     75.41863     75.41863    428978.88   -7600.1147    15337.557 
   27600    8111.3219    8151.7338    88789.454      85518.9    75.394012    75.394012    75.394012    428558.94   -7548.3572    15329.273 
   27700    8147.1249    8143.1107    82062.991    84845.458     75.48077     75.48077     75.48077    430040.11   -7599.9914     15431.07 
   27800    8153.6942    8139.7532    88185.558    85494.187    75.466591    75.466591    75.466591    429797.82   -7560.6237    15428.175 
   27900     8109.367    8134.3253    83141.711    85132.207    75.477619    75.477619    75.477619    429986.25   -7610.4233    15284.728 
   28000    8143.2703    8130.4934    86740.124    85125.816    75.408422    75.408422    75.408422    428804.72   -7845.7207    15027.539 
   28100    8070.4656    8120.5878    85566.647    85122.926     75.39819     75.39819     75.39819     428630.2   -7742.0232    15020.756 
   28200    8081.0395    8112.6584    86514.156    85134.109    75.525289    75.525289    75.525289    430801.49   -7658.4516    15030.057 
   28300    8054.6671    8109.0824    85509.187    85545.784    75.361338    75.361338    75.361338    428002.01   -7745.1799    14886.827 
   28400    8027.8246    8098.8426    86718.111    85785.261    75.431222    75.431222    75.431222     429193.8   -7778.8487    14890.652 
   28500    7997.4808    8089.6256    84585.444    85781.338    75.433282    75.433282    75.433282    429228.96    -7728.186    14852.365 
   28600    8063.1648    8084.8099    84515.824    85353.975      75.4641      75.4641      75.4641    429755.26   -7830.6445    14810.414 
   28700    8005.3953    8070.6369    82619.905    85409.667    75.445239    75.445239    75.445239     429433.1   -7869.4374    14760.044 
   28800    7970.4698    8052.3145    80822.327    84673.344    75.371042    75.371042    75.371042    428167.35   -7973.3891    14548.305 
   28900    7924.2893    8033.8067     85577.79    84916.951    75.345499    75.345499    75.345499    427732.19   -7753.5625    14683.475 
   29000    8014.5507    8020.9347    86284.267    84871.366    75.382475    75.382475    75.382475    428362.24   -7852.4132    14621.962 
   29100    7911.8027    8005.0685    87767.184    85091.419    75.277535    75.277535    75.277535    426575.75   -7864.8912    14552.189 
   29200     7925.762    7989.5407    82992.938    84739.298    75.326774    75.326774    75.326774    427413.38   -7967.6285    14324.554 
   29300    7986.9785    7982.7718    83159.411     84504.32    75.400958    75.400958    75.400958     428677.4   -7960.1889    14496.515 
   29400    7854.7502    7965.4644    83228.548    84155.364    75.387058    75.387058    75.387058    428440.37   -7898.4848    14337.464 
   29500    7902.0496    7955.9213    86925.255    84389.345    75.322016    75.322016    75.322016    427332.39   -7797.8068    14542.346 
   29600    7822.9307    7931.8979    85465.172     84484.28    75.258699    75.258699    75.258699    426255.62   -7872.5214    14292.875 
   29700    7873.3659    7918.6949    82706.743    84492.964    75.223621    75.223621    75.223621    425659.87   -7915.1933    14239.238 
   29800    7883.7198    7910.0199    83343.138    84745.045    75.332121    75.332121    75.332121     427504.4   -7974.9512    14214.301 
   29900    7857.2557    7903.3166    85057.522    84693.018    75.178189    75.178189    75.178189     424889.1   -7919.3839    14122.495 
   30000    7824.3376    7884.2953    83305.591     84395.15     75.12585     75.12585     75.12585    424002.29   -8097.8745    14040.278 
   30100    7830.8876    7876.2038    82031.031    83821.535    75.223016    75.223016    75.223016    425649.59   -8148.0786    14044.026 
   30200    7748.3945     7858.467    81467.206    83668.962     75.28352     75.28352     75.28352    426677.51   -8082.0766    13823.354 
   30300    7851.9395    7844.9631    82549.357    83607.956    75.275894    75.275894    75.275894    426547.86   -7960.7218    14115.803 
   30400    7791.1942    7838.6075    84014.729    83686.574    75.197789    75.197789    75.197789     425221.5   -8060.8187    14027.389 
   30500     7776.334     7826.036    83276.358    83321.685     75.07865     75.07865     75.07865    423203.62   -8195.8413    13778.911 
   30600    7761.2521    7819.8681    81743.373    82949.505    75.043487    75.043487    75.043487    422609.27   -8126.6853    13823.399 
   30700    7762.6241    7808.7939    86471.183    83325.949    75.131752    75.131752    75.131752    424102.23   -8174.7652    13783.852 
   30800    7724.6033    7792.8823    82953.013    83286.936     75.05794     75.05794     75.05794     422853.5   -8202.4254    13694.943 
   30900    7747.0568    7781.8624    83353.354    83116.519    75.102376    75.102376    75.102376    423604.95   -8201.7311    13725.098 
   31000    7704.9248    7769.9211    83585.589    83144.519    75.040235    75.040235    75.040235    422554.33   -8271.7605    13515.687 
   31100     7672.491    7754.0814     86422.45    83583.661    75.072863    75.072863    75.072863    423105.76   -8140.3279    13566.781 
   31200    7683.7917    7747.6211    83996.495     83836.59    75.200283    75.200283    75.200283    425263.81   -8152.9659     13636.15 
   31300    7691.6966    7731.5969     86611.54    84242.808    75.032807    75.032807    75.032807    422428.86   -8249.8106    13560.235 
   31400    7664.6698    7718.9444    83092.617    84150.597    75.045478    75.045478    75.045478    422642.91   -8294.4862    13404.908 
   31500    7618.7588    7703.1869    85779.995    84400.961     75.01152     75.01152     75.01152    422069.43   -8084.2208    13464.721 
   31600    7659.8851    7693.0502    88965.629    85123.186    74.953588    74.953588    74.953588    421092.28   -8214.3709    13492.499 
   31700    7557.8233    7672.5701    80802.272    84556.295    75.034778    75.034778    75.034778    422462.15   -8367.0394    13079.789 
   31800     7662.397    7666.3495    82199.678    84480.962    74.890938    74.890938    74.890938    420037.25   -8437.8679    13214.976 
   31900    7602.0787    7651.8517    83049.307    84450.557     74.98378     74.98378     74.98378    421601.35   -8374.0821    13189.294 
   32000     7605.064    7641.8656    82770.453    84369.044    75.086848    75.086848    75.086848    423342.25   -8287.3367     13265.46 
   32100    7573.4927    7631.9658    82219.177    83948.716    74.979241    74.979241    74.979241    421524.79   -8252.1797    13157.556 
   32200     7612.835    7624.8701    82208.038    83769.871     74.98782     74.98782     74.98782     421669.5    -8308.245    13302.261 
   32300    7550.1422    7610.7147     82103.34     83319.05    74.964215    74.964215    74.964215    421271.41   -8321.9566    12996.894 
   32400     7508.028    7595.0505    85203.094    83530.098    74.959876    74.959876    74.959876    421198.26   -8344.9124    12975.383 
   32500    7570.8845    7590.2631    80536.748    83005.774    74.937591    74.937591    74.937591    420822.73   -8386.6336    13038.433 
   32600    7546.6766    7578.9422    82358.709    82345.082    74.931668    74.931668    74.931668    420722.95   -8380.7979    12989.782 
   32700    7550.9499    7578.2549    78605.354     82125.39    74.969611    74.969611    74.969611    421362.39   -8452.1013    12966.243 
   32800     7461.143    7558.1295    83627.088    82268.131    74.870313    74.870313    74.870313    419690.32   -8389.3823    12778.516 
   32900    7503.2986    7548.2515    81251.015    82088.301     74.90726     74.90726     74.90726    420311.94    -8440.286     12763.17 
   33000    7418.8805    7529.6331    85150.049    82326.261    74.982105    74.982105    74.982105     421573.1   -8418.5682    12640.715 
   33100    7464.8585    7518.7697    81472.152    82251.559    74.971636    74.971636    74.971636    421396.54   -8418.6196    12702.115 
   33200    7463.5554    7503.8417    84231.225    82453.877    74.877231    74.877231    74.877231    419806.67    -8550.747    12495.732 
   33300    7429.6508    7491.7926    85009.111    82744.454     74.81077     74.81077     74.81077    418689.79   -8592.1519    12381.438 
   33400    7400.0465    7480.9945    83251.751     82549.32    74.891111    74.891111    74.891111    420040.17   -8594.8425    12432.309 
   33500      7405.07     7464.413    82692.346     82764.88    74.817856    74.817856    74.817856    418808.79   -8516.1716    12418.123 
   33600    7357.5711    7445.5025    82079.371    82736.946    74.826738    74.826738    74.826738    418957.95   -8644.3815    12261.773 
   33700    7391.0783    7429.5153    83409.154    83217.326    74.797329    74.797329    74.797329    418464.16   -8655.1435    12233.663 
   33800    7359.9114    7419.3921    81663.553    83020.973    74.842112    74.842112    74.842112    419216.24   -8519.0998    12266.651 
   33900    7384.4507    7407.5073    81359.962    83031.867    74.822025    74.822025    74.822025    418878.79   -8553.9249    12330.217 
   34000    7326.0737    7398.2267    81241.247    82640.987    74.821043    74.821043    74.821043     418862.3   -8635.6435    12100.316 
   34100    7325.3492    7384.2757    79959.653    82489.737     74.83426     74.83426     74.83426    419084.31   -8640.6059     12115.09 
   34200    7348.0161    7372.7218     81014.72    82168.087    74.776364    74.776364    74.776364    418112.39   -8680.5311     12017.47 
   34300    7327.1605    7362.4728    82563.848    81923.561     74.69649     74.69649     74.69649    416773.97   -8594.1816    12243.251 
   34400    7278.3801    7350.3061    82987.681    81897.154    74.695097    74.695097    74.695097    416750.66   -8540.3234     12037.65 
   34500    7302.7616    7340.0753    81688.245    81796.744     74.77324     74.77324     74.77324    418059.99   -8687.3003    12074.521 
   34600    7246.1397    7328.9321    83348.516    81923.658    74.803388    74.803388    74.803388    418565.87   -8588.7418    11980.598 
   34700    7214.7245    7311.2967    77570.938    81339.836    74.663485    74.663485    74.663485    416221.76   -8689.9603    11780.343 
   34800    7315.4024    7306.8458    80695.128    81242.994    74.590492    74.590492    74.590492    415002.22   -8923.1387    11833.603 
   34900    7246.8936    7293.0901    79186.434    81025.641    74.708408    74.708408    74.708408    416973.49   -8889.2777    11658.342 
   35000    7197.5272    7280.2355    76724.232     80573.94    74.670072    74.670072    74.670072    416331.92   -8806.0943    11621.467 
   35100    7241.5052    7271.8511    82875.834    80865.558    74.704393    74.704393    74.704393    416906.26   -8731.7079    11700.798 
   35200    7184.7409    7255.5236    78922.645     80656.35    74.770584    74.770584    74.770584    418015.44   -8756.4395    11511.211 
   35300    7170.1497    7239.8225    79918.858    80391.851    74.757784    74.757784    74.757784    417800.79   -8855.3291    11498.649 
   35400    7216.9322    7233.6777    81558.382    80248.921    74.540188    74.540188    74.540188    414163.14   -8992.0442    11514.631 
   35500    7208.8327    7224.2848    78920.643    79972.161    74.628237    74.628237    74.628237    415632.54   -8908.5891    11443.544 
   35600    7171.8606    7216.8569    79286.877    79565.997    74.642162    74.642162    74.642162    415865.26   -9009.3062    11367.623 
   35700     7169.802    7212.3647     77758.37     79584.74    74.607501    74.607501    74.607501    415286.19   -8953.7359    11405.118 
   35800    7157.7329    7196.5977    79429.067    79458.134    74.520372    74.520372    74.520372    413832.92   -9036.5523    11296.121 
   35900    7140.8048    7185.9888    78271.933    79366.684    74.552412    74.552412    74.552412    414366.95   -9071.1063     11171.25 
   36000     7122.107    7178.4468    81757.843    79870.045    74.594811    74.594811    74.594811     415074.3   -9000.6471    11265.307 
   36100    7080.4434    7162.3406    85632.574    80145.719    74.507109    74.507109    74.507109       413612    -9060.705    10996.658 
   36200     7075.331    7151.3996    82331.917    80486.646    74.457079    74.457079    74.457079    412779.37   -9091.9548    10959.269 
   36300    7046.1439     7138.999    80233.226    80518.083    74.537637    74.537637    74.537637    414120.63   -9051.9884    10988.484 
   36400    7119.3368    7129.2395    80268.205    80389.066    74.506502    74.506502    74.506502     413601.9   -8976.5253    11235.756 
   36500    7050.6682    7113.4231    78084.326    80305.434    74.527278    74.527278    74.527278    413947.98   -9000.3145     10982.46 
   36600    6999.2553    7096.1625      78377.6    80214.506    74.523803    74.523803    74.523803    413890.08   -9071.7577    10860.138 
   36700    7028.9962     7082.082    81242.187    80562.888     74.42689     74.42689     74.42689    412277.49   -9104.1127    10888.689 
   36800    6942.2111    7060.5298    82122.197    80832.201    74.366163    74.366163    74.366163    411269.13   -8977.4157    10799.618 
   36900    6994.1391    7045.8632    80010.343    81006.042    74.540686    74.540686    74.540686    414171.45   -9031.9028    10837.219 
   37000    7012.7328    7034.9258    82725.809    81102.838    74.423373    74.423373    74.423373    412219.05   -9025.3533    10838.179 
   37100    7046.3318    7031.5146    80778.927    80617.474     74.39446     74.39446     74.39446     411738.8   -9130.9522    10695.664 
   37200    6956.5023    7019.6317    80799.387    80464.221    74.405623    74.405623    74.405623    411924.17   -9158.5506    10590.621 
   37300    6978.1705    7012.8344    81061.033    80547.001    74.474773    74.474773    74.474773    413073.72   -9266.4751    10477.965 
   37400    6955.9533    6996.4961    78497.414    80369.922    74.422132    74.422132    74.422132    412198.42   -9219.3175    10527.646 
   37500    6979.6002    6989.3893    78548.333    80416.323    74.437604    74.437604    74.437604    412455.55   -9227.7429    10632.274 
   37600    6959.4748    6985.4112    80395.679    80618.131     74.41899     74.41899     74.41899    412146.21   -9262.8348     10518.59 
   37700     6967.793    6979.2909    79675.682     80461.48    74.388875    74.388875    74.388875    411646.07   -9488.8402    10215.605 
   37800    6898.6997    6974.9397    81517.776    80401.038    74.289677    74.289677    74.289677    410001.47     -9348.03    10241.796 
   37900    6851.4168    6960.6675    79397.896    80339.793    74.344112    74.344112    74.344112    410903.39   -9273.2515    10267.906 
   38000    6854.4863    6944.8429    77522.674     79819.48    74.313843    74.313843    74.313843    410401.72   -9310.6931     10115.41 
   38100    6849.5344    6925.1631    78430.564    79584.644    74.344759    74.344759    74.344759    410914.13   -9340.4524    10209.194 
   38200     6866.502    6916.1631    77927.164    79297.421    74.281287    74.281287    74.281287    409862.57   -9354.0758    10151.443 
   38300    6838.9158    6902.2376    78187.354    79010.054    74.345369    74.345369    74.345369    410924.24   -9375.2342    9952.5907 
   38400    6814.5628    6888.0986    75977.791    78758.091    74.351657    74.351657    74.351657    411028.51   -9289.6951    10089.416 
   38500    6845.1721    6874.6558    78245.529    78727.811     74.32085     74.32085     74.32085    410517.82   -9275.8376    10122.141 
   38600    6808.7309    6859.5814    80526.395    78740.882    74.230552    74.230552    74.230552    409023.32   -9293.9984    10031.938 
   38700    6865.2056    6849.3226    80831.428    78856.457    74.244306    74.244306    74.244306    409250.73   -9330.1594     10053.05 
   38800    6780.9521    6837.5479    80570.185    78761.698    74.323589    74.323589    74.323589     410563.2   -9315.1726    9888.2523 
   38900    6770.4019    6829.4464    79977.695    78819.678     74.30791     74.30791     74.30791    410303.42   -9455.5639    9805.3351 
   39000    6759.5498    6819.9527    79527.678    79020.178    74.239711    74.239711    74.239711    409174.75    -9518.852    9649.6918 
   39100    6777.4196    6812.7413    80145.257    79191.648    74.152458    74.152458    74.152458    407733.75    -9593.692    9690.5634 
   39200    6702.0025    6796.2913    77240.246    79122.956    74.224693    74.224693    74.224693    408926.47   -9640.7801    9477.0023 
   39300    6751.0802    6787.5078    77030.281    79007.249    74.196761    74.196761    74.196761       408465   -9715.1201    9441.9551 
   39400    6697.9225    6775.8437    75456.157    78955.085    74.131224    74.131224    74.131224    407383.58   -9688.9296    9314.8267 
   39500    6648.9947     6756.226    78544.416    78984.974    74.140071    74.140071    74.140071    407529.44   -9692.9847    9251.7686 
   39600    6710.0993    6746.3628    77124.176    78644.752    74.116218    74.116218    74.116218    407136.22   -9607.0123    9493.4173 
   39700    6680.1452    6727.8568    81253.288    78686.938    74.053903    74.053903    74.053903    406110.16   -9573.1189    9354.8613 
   39800    6720.7821    6721.8398    79396.579    78569.577    74.148399    74.148399    74.148399    407666.79   -9664.5471    9342.8388 
   39900    6686.7057    6713.4702    75055.546    78077.362    74.031443    74.031443    74.031443    405740.76   -9703.3042    9286.1274 
   40000    6618.4651    6699.3617    78510.095    77975.604    74.041033    74.041033    74.041033    405898.47   -9677.7783    9208.7195 
   40100    6606.8027       6682.3    76521.488    77613.227    74.156833    74.156833    74.156833    407805.91   -9772.9036    9009.8375 
   40200    6629.1995    6675.0197    81461.422    78035.345    74.033144    74.033144    74.033144    405768.74   -9796.3218    9074.3531 
   40300    6599.1651    6659.8282    77361.489    78068.466    74.053734    74.053734    74.053734    406107.38   -9831.3822    8930.3079 
   40400    6610.3478    6651.0707    80630.542    78585.904    73.991656    73.991656    73.991656    405086.94    -9794.136    8915.9605 
   40500    6550.9991    6641.2712    78675.539    78599.016    73.916084    73.916084    73.916084    403846.99   -9791.2444     8907.997 
   40600    6546.4673     6624.908    77192.243    78605.823    74.058693    74.058693    74.058693    406188.97   -9801.0398    8861.7856 
   40700    6573.2328    6614.2167    78709.332    78351.427    73.909027    73.909027    73.909027    403731.33   -9812.7616    8923.4442 
   40800    6566.5509    6598.7936    76490.754    78060.845    73.964212    73.964212    73.964212    404636.36    -9934.076    8719.9188 
   40900    6540.9745    6584.2205    76813.013    78236.592    73.971657    73.971657    73.971657    404758.56    -9926.984    8619.7093 
   41000    6504.7909    6572.8531    79763.465    78361.929     73.97373     73.97373     73.97373    404792.59   -9874.2998    8587.5394 
   41100    6522.8996    6564.4627    76729.602     78382.74    73.982298    73.982298    73.982298    404933.26   -9969.1014     8623.612 
   41200    6465.4754    6548.0903    77254.155    77962.013     73.93717     73.93717     73.93717     404192.7     -9889.63    8488.0412 
   41300    6476.1222     6535.786    76481.633    77874.028    73.900776    73.900776    73.900776    403596.13   -9873.0305    8597.8625 
   41400    6497.0346    6524.4547     78465.53    77657.526    73.927007    73.927007    73.927007    404026.06   -9991.5074    8447.3116 
   41500    6498.9169    6519.2465    78373.655    77627.338    73.870612    73.870612    73.870612    403102.12    -9992.608    8457.0106 
   41600    6440.7969    6508.6795    78871.939    77795.308    73.974193    73.974193    73.974193    404800.19   -9898.8819     8439.616 
   41700    6412.4519    6492.6014    79265.568    77850.931    73.955613    73.955613    73.955613    404495.25   -10016.081    8249.8574 
   41800    6415.6035    6477.5066    76839.344     77885.79    73.889675    73.889675    73.889675    403414.29   -10051.176    8199.3453 
   41900    6429.6327    6466.3725    75142.888    77718.778    73.876154    73.876154    73.876154    403192.86    -10092.67    8135.9576 
   42000    6455.6312    6461.4565    79202.988     77662.73    73.783484    73.783484    73.783484    401677.47   -10063.452    8295.0685 
   42100    6445.6548     6453.732     76141.87    77603.957    73.824478    73.824478    73.824478    402347.36   -9977.4221    8270.3309 
   42200     6399.756    6447.1601    75480.701    77426.612    73.823906    73.823906    73.823906    402338.01   -10112.533    8123.7837 
   42300    6369.2165    6436.4695    74195.505    77197.999    73.859643    73.859643    73.859643    402922.59   -10256.249    7910.1022 
[...]
  367300    300.59745    300.25694   -1975.7243   -2002.9781    75.705216    75.705216    75.705216    433887.78   -24559.181   -23565.741 
  367400    298.94153    299.91001   -2191.4335   -2008.2582    75.742597    75.742597    75.742597    434530.81   -24561.212   -23571.078 
  367500    301.10668    300.05948    -1824.966   -2013.6959    75.721435    75.721435    75.721435     434166.7   -24567.849   -23572.446 
  367600    300.97205    300.07032   -2010.4163   -2027.1556    75.736016    75.736016    75.736016    434417.55   -24559.605   -23560.312 
  367700    298.97959    299.82056   -2039.4467   -2007.4658    75.757413    75.757413    75.757413    434785.86   -24561.796   -23569.685 
  367800    299.08289    299.90585   -1845.0913   -1991.3745    75.661018    75.661018    75.661018    433128.28     -24562.5   -23571.409 
  367900     299.8256    299.78287   -2011.6685   -2009.5557    75.633312    75.633312    75.633312    432652.63   -24561.274   -23564.463 
  368000    299.59091    299.73421   -1980.2418   -2005.9275    75.639732    75.639732    75.639732    432762.82   -24561.442   -23570.801 
  368100    296.59866    299.49381   -2280.3207   -2026.5418    75.670771    75.670771    75.670771    433295.79   -24555.539   -23565.851 
  368200    299.27456    299.49699   -1844.0957   -2000.3405    75.701414    75.701414    75.701414    433822.41   -24559.612   -23564.919 
  368300    300.18851     299.4561   -1993.2231   -2002.0904     75.73457     75.73457     75.73457    434392.67    -24558.15   -23562.638 
  368400    299.72392    299.53434   -1999.5221   -1982.8992    75.783048    75.783048    75.783048    435227.37    -24554.59   -23559.323 
  368500    299.69386    299.39305   -1614.3628   -1961.8389    75.749356    75.749356    75.749356    434647.15   -24561.765   -23569.779 
  368600    303.59983    299.65583   -1978.7079   -1958.6681    75.785851    75.785851    75.785851    435275.68    -24562.98   -23563.127 
  368700    300.26772    299.78465   -1804.5505   -1935.1784    75.791699    75.791699    75.791699    435376.45   -24560.985   -23568.934 
  368800    301.17356    299.99371   -1900.1734   -1940.6866    75.754429    75.754429    75.754429    434734.48    -24559.75   -23565.137 
  368900    301.70247     300.1814   -2097.6914   -1949.2889    75.727482    75.727482    75.727482    434270.72    -24565.35   -23566.785 
  369000    299.88867    300.21118   -2120.9752   -1963.3623    75.709761    75.709761    75.709761    433965.92   -24567.217   -23571.741 
  369100    299.27277    300.47859   -1971.2254   -1932.4527    75.663971    75.663971    75.663971       433179   -24557.603    -23564.95 
  369200    301.27058    300.67819    -2161.502   -1964.1934    75.705433    75.705433    75.705433     433891.5   -24568.881   -23569.858 
  369300    300.16178    300.67552   -1955.7698   -1960.4481    75.663814    75.663814    75.663814    433176.29   -24565.419   -23568.774 
  369400    300.37287    300.74041   -1624.7583   -1922.9717    75.700746    75.700746    75.700746    433810.91   -24562.426   -23567.679 
  369500    299.35338    300.70636    -2130.879   -1974.6233     75.70234     75.70234     75.70234    433838.31   -24562.509   -23571.315 
  369600    299.90449    300.33683   -2035.9877   -1980.3513    75.720659    75.720659    75.720659    434153.35   -24560.188   -23565.008 
  369700    299.81097    300.29115    -1870.644   -1986.9606    75.767061    75.767061    75.767061       434952   -24558.413   -23557.847 
  369800    301.46767    300.32056   -1925.5739   -1989.5007    75.760439    75.760439    75.760439    434837.96   -24558.151    -23562.35 
  369900    300.71187     300.2215   -1969.8053   -1976.7121    75.715545    75.715545    75.715545    434065.39   -24559.667   -23561.179 
  370000    296.58924    299.89156   -2296.2864   -1994.2432      75.7349      75.7349      75.7349    434398.36     -24562.9   -23578.203 
  370100    300.75286    300.03957   -1772.9392   -1974.4146    75.726452    75.726452    75.726452       434253   -24562.231   -23563.211 
  370200    299.77529    299.89004   -2200.4492   -1978.3093    75.746397    75.746397    75.746397    434596.22   -24559.453   -23563.902 
  370300    300.20044    299.89391   -1861.7793   -1968.9102    75.716853    75.716853    75.716853    434087.88   -24563.973   -23566.249 
  370400    297.66569    299.62319   -2018.6586   -2008.3003    75.694532    75.694532    75.694532     433704.1    -24567.77   -23575.269 
  370500    299.53676    299.64153   -2341.2582   -2029.3382    75.711956    75.711956    75.711956    434003.66   -24564.276   -23571.313 
  370600    304.18628    300.06971   -1800.6787   -2005.8073    75.645375    75.645375    75.645375    432859.69    -24567.26   -23563.886 
  370700    300.55669    300.14428   -1656.8558   -1984.4285    75.678108    75.678108    75.678108    433421.84   -24562.126   -23564.719 
  370800    299.19126    299.91664   -1929.8908   -1984.8602    75.683795    75.683795    75.683795    433519.57   -24562.573   -23571.872 
  370900     297.3817    299.58362   -1973.6967   -1985.2493    75.608198    75.608198    75.608198    432221.79   -24563.174   -23574.331 
  371000    299.05775    299.83047   -1922.1164   -1947.8323    75.621697    75.621697    75.621697    432453.34   -24565.955   -23579.017 
  371100    300.53997    299.80918   -2058.7112   -1976.4095      75.6712      75.6712      75.6712    433303.16   -24568.557   -23573.835 
  371200    301.31174    299.96283   -2046.6928   -1961.0338    75.718368    75.718368    75.718368    434113.95   -24564.296   -23569.371 
  371300    299.83305    299.92609   -2036.7294   -1978.5288    75.737479    75.737479    75.737479    434442.74   -24563.634   -23570.669 
  371400    297.76494    299.93601    -1874.808   -1964.1438    75.696907    75.696907    75.696907    433744.92   -24560.451   -23568.467 
  371500    299.80267    299.96261   -1876.4195   -1917.6599    75.743715    75.743715    75.743715    434550.05   -24563.157   -23569.967 
  371600    297.70639    299.31462   -2139.1769   -1951.5097    75.725929    75.725929    75.725929       434244   -24561.491   -23570.907 
  371700    299.44466    299.20341   -1946.7611   -1980.5003     75.69857     75.69857     75.69857    433773.51   -24563.577   -23568.623 
  371800    301.97194    299.48148   -1993.2063   -1986.8318    75.672761    75.672761    75.672761    433329.98   -24567.428   -23571.588 
  371900    299.36112    299.67942   -1933.3654   -1982.7987    75.718752    75.718752    75.718752    434120.56   -24554.634   -23562.934 
  372000    301.78608    299.95226   -2150.0868   -2005.5957    75.726894    75.726894    75.726894    434260.61   -24557.474    -23562.99 
  372100    300.08977    299.90724   -2094.0907   -2009.1337    75.743429    75.743429    75.743429    434545.13   -24562.587   -23562.465 
  372200    299.78655    299.75472   -1816.5119   -1986.1156    75.733975    75.733975    75.733975    434382.44   -24566.559   -23568.931 
  372300    300.76238    299.84765   -2269.0349   -2009.3462    75.693717    75.693717    75.693717    433690.09   -24565.969   -23574.278 
  372400     303.4457    300.41573   -1932.4685   -2015.1122    75.716255    75.716255    75.716255    434077.59   -24565.623   -23564.916 
  372500    300.67209    300.50267   -2176.3515   -2045.1054    75.698834    75.698834    75.698834    433778.05   -24568.032   -23569.805 
  372600    299.03215    300.63524   -1844.7373   -2015.6614    75.738555    75.738555    75.738555    434461.24   -24559.934   -23568.477 
  372700    299.12781    300.60356   -2034.3548   -2024.4208    75.750224    75.750224    75.750224    434662.09   -24566.488   -23572.573 
  372800    301.58499    300.56486   -2208.6031   -2045.9605     75.74774     75.74774     75.74774    434619.32   -24565.486   -23571.698 
  372900    300.07638    300.63639   -1911.9991   -2043.8239    75.835656    75.835656    75.835656     436134.4   -24561.926   -23568.196 
  373000    299.23606    300.38139   -2356.2869   -2064.4439    75.847871    75.847871    75.847871    436345.18    -24563.61   -23570.403 
  373100    299.58511    300.33092   -1694.8375   -2024.5186    75.768423    75.768423    75.768423    434975.45   -24565.514   -23571.749 
  373200    299.83583    300.33585   -1822.8463    -2025.152    75.765387    75.765387    75.765387    434923.16   -24558.382   -23564.956 
  373300    297.47714    300.00733   -1863.1422   -1984.5627     75.75766     75.75766     75.75766     434790.1   -24562.402   -23568.168 
  373400    298.15028    299.47778   -2115.4405   -2002.8599    75.739475    75.739475    75.739475    434477.08   -24562.127   -23570.103 
  373500    299.39082    299.34966   -1842.2792   -1969.4527    75.741667    75.741667    75.741667    434514.81   -24560.811   -23566.993 
  373600    298.89297    299.33574   -2140.5199   -1999.0309    75.767077    75.767077    75.767077    434952.27    -24567.94   -23569.783 
  373700    300.37866    299.46082   -1905.9721   -1986.1927    75.765304    75.765304    75.765304    434921.73   -24559.044   -23565.486 
  373800    300.41047    299.34337   -1769.7873   -1942.3111    75.736983    75.736983    75.736983     434434.2   -24562.557   -23572.672 
  373900    299.80925    299.31666    -2207.996   -1971.9108    75.781716    75.781716    75.781716    435204.42   -24561.657   -23570.065 
  374000    303.54125    299.74718   -1718.5346   -1908.1356     75.83933     75.83933     75.83933    436197.79   -24564.467   -23563.912 
  374100    298.83781    299.67245   -2190.8402   -1957.7358    75.832813    75.832813    75.832813    436085.35   -24562.764   -23575.508 
  374200    298.14061    299.50293   -1906.9148   -1966.1427    75.789971    75.789971    75.789971    435346.67   -24560.499   -23572.121 
  374300    300.29887     299.7851   -2244.0294   -2004.2314    75.780647    75.780647    75.780647    435186.02   -24562.739   -23572.375 
  374400    299.51963    299.92203    -2080.897   -2000.7771    75.769543    75.769543    75.769543    434994.74   -24562.803   -23566.559 
  374500    301.15105    300.09806   -2034.6875   -2020.0179     75.80353     75.80353     75.80353    435580.35   -24564.131    -23565.26 
  374600    299.37111    300.14587   -2212.1363   -2027.1795    75.807253    75.807253    75.807253    435644.55   -24563.945   -23568.978 
  374700    298.82495     299.9905   -1876.1157   -2024.1939    75.772245    75.772245    75.772245    435041.27    -24559.66   -23561.306 
  374800    301.35281    300.08473    -2267.854   -2074.0006     75.80223     75.80223     75.80223    435557.95   -24563.128   -23565.501 
  374900    299.31241    300.03505   -2166.7537   -2069.8763    75.783919    75.783919    75.783919    435242.38   -24563.978   -23565.617 
  375000    298.84469    299.56539    -2023.086   -2100.3315    75.744083    75.744083    75.744083    434556.39   -24559.759   -23567.848 
  375100    298.46959    299.52857   -2002.4538   -2081.4928    75.754588    75.754588    75.754588    434737.21    -24563.69   -23571.446 
  375200    299.80562    299.69507    -1951.594   -2085.9607    75.734723    75.734723    75.734723    434395.31   -24568.279   -23569.757 
  375300    300.94197    299.75938   -2305.2049   -2092.0783    75.693746    75.693746    75.693746    433690.59   -24562.245   -23563.538 
  375400     300.6832    299.87574   -2105.9503   -2094.5836    75.694829    75.694829    75.694829    433709.21   -24563.639   -23564.451 
  375500    300.21668     299.7823    -2197.048   -2110.8197    75.692289    75.692289    75.692289    433665.54   -24562.367   -23568.217 
  375600    298.54506     299.6997   -2059.1197    -2095.518    75.669294    75.669294    75.669294    433270.42   -24566.068   -23576.404 
  375700    299.60404    299.77761   -1841.2875   -2092.0352    75.738423    75.738423    75.738423    434458.97   -24560.814   -23565.964 
  375800    298.53463    299.49579   -1627.6774   -2028.0175    75.720759    75.720759    75.720759    434155.07   -24557.783   -23567.224 
  375900    299.80363    299.54491   -2094.9635   -2020.8385    75.728631    75.728631    75.728631    434290.49   -24567.352   -23571.937 
  376000     302.1827    299.87871   -1782.3813    -1996.768    75.723593    75.723593    75.723593    434203.82   -24560.638   -23558.396 
  376100    299.65256    299.99701   -2260.0699   -2022.5297    75.795371    75.795371    75.795371    435439.73   -24563.965   -23570.023 
  376200    300.11052     300.0275   -1875.6292   -2014.9332    75.765198    75.765198    75.765198     434919.9   -24566.411   -23571.676 
  376300    300.18366    299.95167   -1829.7286   -1967.3856    75.787925    75.787925    75.787925    435311.41   -24567.768   -23573.991 
  376400    298.67204    299.75055   -1663.6302   -1923.1535    75.738278    75.738278    75.738278    434456.47   -24567.331   -23573.122 
  376500    300.54143    299.78303   -2273.4334   -1930.7921     75.72192     75.72192     75.72192    434175.04   -24568.771   -23571.618 
  376600    295.17633    299.44615   -1961.6825   -1921.0484    75.730682    75.730682    75.730682    434325.78   -24565.765   -23574.057 
  376700    300.47451     299.5332   -2179.6437    -1954.884    75.671933    75.671933    75.671933    433315.75   -24565.118   -23570.899 
  376800    298.59928    299.53966   -1868.9236   -1979.0086    75.668346    75.668346    75.668346    433254.13   -24566.956   -23568.301 
  376900    297.70958    299.33026    -1999.579   -1969.4701    75.680409    75.680409    75.680409    433461.39   -24565.768   -23576.664 
  377000    299.06847    299.01884   -1939.9204    -1985.224    75.728391    75.728391    75.728391    434286.35   -24565.408   -23576.369 
  377100    301.56824    299.21041   -2043.8093    -1963.598    75.757979    75.757979    75.757979    434795.61   -24560.692   -23559.603 
  377200    300.35762    299.23512   -2265.9554   -2002.6306    75.729921    75.729921    75.729921    434312.69   -24563.912   -23563.564 
  377300    298.48336    299.06509    -2256.835   -2045.3412    75.741709    75.741709    75.741709    434515.52   -24564.637   -23569.376 
  377400    299.23327    299.12121   -1660.3275    -2045.011    75.733488    75.733488    75.733488    434374.05   -24569.817   -23574.183 
  377500    299.82795    299.04986   -1932.9448   -2010.9621    75.718832    75.718832    75.718832    434121.92   -24565.997   -23567.732 
  377600    297.22709    299.25494   -2006.9157   -2015.4854    75.724898    75.724898    75.724898    434226.27   -24563.377   -23571.769 
  377700    299.93907    299.20139   -1882.7466   -1985.7957    75.697506    75.697506    75.697506    433755.22   -24568.086   -23572.239 
  377800    300.90006    299.43147   -2189.0356   -2017.8069    75.766514    75.766514    75.766514    434942.58   -24564.859   -23563.713 
  377900    300.09484       299.67   -1654.3366   -1983.2827    75.714625    75.714625    75.714625    434049.57   -24569.407   -23573.895 
  378000    299.61966    299.72512   -2180.4367   -2007.3343    75.714573    75.714573    75.714573    434048.67   -24568.872   -23574.153 
  378100    300.12245    299.58054   -1772.5853   -1980.2119    75.725158    75.725158    75.725158    434230.74   -24566.557   -23575.076 
  378200    302.86479    299.83125   -1965.5532   -1950.1717    75.742782    75.742782    75.742782    434533.99   -24567.827   -23564.587 
  378300    300.27467    300.01039   -1835.2912   -1908.0173    75.754538    75.754538    75.754538    434736.37   -24567.115   -23574.435 
  378400    299.06424    299.99348   -2022.7425   -1944.2588    75.756688    75.756688    75.756688    434773.38   -24566.843   -23571.523 
  378500    299.92792    300.00348   -1834.9646   -1934.4608    75.777031    75.777031    75.777031    435123.72   -24562.534   -23570.269 
  378600    298.07245    300.08801    -2065.112   -1940.2804     75.74822     75.74822     75.74822     434627.6   -24564.386   -23568.013 
  378700     301.7358    300.26769   -1982.1307   -1950.2188    75.732443    75.732443    75.732443    434356.07   -24570.922   -23567.555 
  378800    300.16813     300.1945   -1714.5979   -1902.7751    75.657686    75.657686    75.657686    433071.06   -24567.991   -23571.478 
  378900     302.5481    300.43982   -2203.9502   -1957.7364    75.702916    75.702916    75.702916    433848.23   -24563.143   -23560.879 
  379000    297.75162    300.25302   -1981.1995   -1937.8127     75.68511     75.68511     75.68511    433542.17    -24566.65   -23574.199 
  379100    298.22163    300.06293   -1837.6464   -1944.3188    75.734881    75.734881    75.734881    434398.03   -24563.204   -23568.448 
  379200    299.59651    299.73611   -1799.8319   -1927.7467    75.727275    75.727275    75.727275    434267.16   -24565.983   -23572.774 
  379300    300.83705    299.79235   -1776.3575   -1921.8533    75.730969    75.730969    75.730969    434330.72   -24568.332   -23573.206 
  379400    302.87344    300.17326   -1805.0441   -1900.0835    75.751613    75.751613    75.751613    434686.01   -24571.225   -23567.208 
  379500    299.92003    300.17248   -1961.8069   -1912.7677     75.78375     75.78375     75.78375    435239.47   -24563.969   -23569.085 
  379600    300.10963    300.37619   -2025.7916   -1908.8357    75.771093    75.771093    75.771093    435021.44   -24563.265   -23565.845 
  379700    300.27449    300.23006   -2255.1192   -1936.1345    75.723455    75.723455    75.723455    434201.44   -24568.949   -23567.197 
  379800     299.5285     300.1661    -2200.835   -1984.7582    75.731771    75.731771    75.731771    434344.52   -24569.502   -23573.019 
  379900    299.71063    299.88235    -1901.037   -1954.4669    75.713049    75.713049    75.713049    434022.46   -24565.672   -23569.855 
  380000    299.19661    300.02685   -1974.0071   -1953.7477    75.691674    75.691674    75.691674    433654.98   -24567.643   -23572.359 
  380100    298.33757    300.03845   -1975.6468   -1967.5477    75.711278    75.711278    75.711278       433992   -24566.523   -23572.115 
  380200     300.6298    300.14178   -2010.4262   -1988.6072    75.739733    75.739733    75.739733    434481.53   -24562.712   -23564.472 
  380300    301.17448    300.17552   -2004.1325   -2011.3847    75.744594    75.744594    75.744594    434565.19   -24564.717   -23570.508 
Loop time of 338.662 on 48 procs for 20000 steps with 16800 atoms

Pair  time (%) = 206.768 (61.0543)
Bond  time (%) = 2.12134 (0.626388)
Neigh time (%) = 0.764657 (0.225787)
Comm  time (%) = 104.136 (30.7491)
Outpt time (%) = 0.549608 (0.162288)
Other time (%) = 24.323 (7.18209)

Nlocal:    350 ave 385 max 285 min
Histogram: 1 0 3 0 7 5 9 8 10 5
Nghost:    1306.06 ave 1357 max 1209 min
Histogram: 1 0 1 2 4 12 7 7 8 6
Neighs:    18994.1 ave 22501 max 13362 min
Histogram: 1 0 4 5 1 10 9 9 5 4

Total # of neighbors = 911718
Ave neighs/atom = 54.2689
Ave special neighs/atom = 2.14286
Neighbor list builds = 299
Dangerous builds = 0

#########################################################################
clear
next a
next p
next q
next r
next s
next t
next v
jump in.EtOCSMethyl# EtOCSMethyl -- network connectivity scan -- with bulk modulus simulation

# trial parameter
variable a index 1.1 1.2 1.3 2.1 2.2 2.3 3.1 3.2 3.3 
# EtOCSMethyl precursor start moleculeID parameter
variable p index 1 1 1 1 1 1 1 1 1 
# EtOCSMethyl precursor end moleculeID parameter
variable q index 2000 2000 2000 2000 2000 2000 2000 2000 2000 
# free O start atomID parameter
variable r index 10001 10001 10001 10001 10001 10001 10001 10001 10001 
# free O end atomID parameter
variable s index 16800 16800 16800 17600 17600 17600 18400 18400 18400 
# porogen start moleculeID parameter
variable t index 2001 2001 2001 2001 2001 2001 2001 2001 2001 
# porogen end moleculeID parameter
variable v index 2000 2000 2000 2000 2000 2000 2000 2000 2000 

log log_$a.lammps
log log_2.1.lammps
